 running on   32 total cores
 distrk:  each k-point on   32 cores,    1 groups
 distr:  one band on   32 cores,    1 groups
 using from now: INCAR     
 vasp.5.4.4.18Apr17-6-g9f103f2a35 (build Nov 22 2022 17:09:42) complex          
  
 POSCAR found type information on POSCAR  Ni O 
 POSCAR found :  2 types and      32 ions
 scaLAPACK will be used

 ----------------------------------------------------------------------------- 
|                                                                             |
|           W    W    AA    RRRRR   N    N  II  N    N   GGGG   !!!           |
|           W    W   A  A   R    R  NN   N  II  NN   N  G    G  !!!           |
|           W    W  A    A  R    R  N N  N  II  N N  N  G       !!!           |
|           W WW W  AAAAAA  RRRRR   N  N N  II  N  N N  G  GGG   !            |
|           WW  WW  A    A  R   R   N   NN  II  N   NN  G    G                |
|           W    W  A    A  R    R  N    N  II  N    N   GGGG   !!!           |
|                                                                             |
|      For optimal performance we recommend to set                            |
|        NCORE= 4 - approx SQRT( number of cores)                             |
|      NCORE specifies how many cores store one orbital (NPAR=cpu/NCORE).     |
|      This setting can  greatly improve the performance of VASP for DFT.     |
|      The default,   NCORE=1            might be grossly inefficient         |
|      on modern multi-core architectures or massively parallel machines.     |
|      Do your own testing !!!!                                               |
|      Unfortunately you need to use the default for GW and RPA calculations. |
|      (for HF NCORE is supported but not extensively tested yet)             |
|                                                                             |
 ----------------------------------------------------------------------------- 


 ----------------------------------------------------------------------------- 
|                                                                             |
|  ADVICE TO THIS USER RUNNING 'VASP/VAMP'   (HEAR YOUR MASTER'S VOICE ...):  |
|                                                                             |
|      You have a (more or less) 'large supercell' and for larger cells       |
|      it might be more efficient to use real space projection opertators     |
|      So try LREAL= Auto  in the INCAR   file.                               |
|      Mind:          For very  accurate calculation you might also keep the  |
|      reciprocal projection scheme          (i.e. LREAL=.FALSE.)             |
|                                                                             |
 ----------------------------------------------------------------------------- 

 LDA part: xc-table for Pade appr. of Perdew
 POSCAR, INCAR and KPOINTS ok, starting setup
 FFT: planning ...
 WAVECAR not read
 entering main loop
 -------------------------------------------------------------------------------
 SASC (Self-Adaptive Spin Constraint)
 Type of SASC calculation = 1
 --------------------------------------
 The DEFINITION of atomic spins which are constrained (MW):
 \vec{M}_{I}=
 \int_{\Omega_{I}} \vec{m}(\mathbf{r}) F_{I}(|\mathbf{r}|) d\mathbf{r}
 -------------------------------------------------------------------------------
 -------------------------------------------------------------------------------
 SASC(L) (Self-Adaptive Spin Constraint (Linear Lagragian))
 Initial trial step size (alpha_trial) = 1.000E-02
 Maximum number of steps in SC iteration = 100
 Number of INTERMEDIATE normal electronic steps = 0
 Convergence criterion of SC iteration (epsilon) = 1.000E-06
 Restriction of SC step size = 3.000E+00
 SASC electronic step begins from: 1
 Constrained atoms: 16/32
 Inner optimization algorithm: 1
 Inner diagonalization algorithm: 1
 Restriction of trial-step update: T
 Debug mode: F
 --------------------------------------
 The DEFINITION of atomic spins which are constrained (MW):
 \vec{M}_{I}=
 \int_{\Omega_{I}} \vec{m}(\mathbf{r}) F_{I}(|\mathbf{r}|) d\mathbf{r}
 -------------------------------------------------------------------------------
       N       E                     dE             d eps       ncg     rms          rms(c)
DAV:   1     0.364919751178E+04    0.36492E+04   -0.12128E+05  4896   0.253E+03
 ===============================================================================
 Inner optimization for lambda begins ...
 Covergence criterion this loop:  1.000000000000000E-006
 initial lambda:
  0.000000000000000E+000  0.000000000000000E+000  0.000000000000000E+000
  0.000000000000000E+000  0.000000000000000E+000  0.000000000000000E+000
  0.000000000000000E+000  0.000000000000000E+000  0.000000000000000E+000
  0.000000000000000E+000  0.000000000000000E+000  0.000000000000000E+000
  0.000000000000000E+000  0.000000000000000E+000  0.000000000000000E+000
  0.000000000000000E+000  0.000000000000000E+000  0.000000000000000E+000
  0.000000000000000E+000  0.000000000000000E+000  0.000000000000000E+000
  0.000000000000000E+000  0.000000000000000E+000  0.000000000000000E+000
  0.000000000000000E+000  0.000000000000000E+000  0.000000000000000E+000
  0.000000000000000E+000  0.000000000000000E+000  0.000000000000000E+000
  0.000000000000000E+000  0.000000000000000E+000  0.000000000000000E+000
  0.000000000000000E+000  0.000000000000000E+000  0.000000000000000E+000
  0.000000000000000E+000  0.000000000000000E+000  0.000000000000000E+000
  0.000000000000000E+000  0.000000000000000E+000  0.000000000000000E+000
  0.000000000000000E+000  0.000000000000000E+000  0.000000000000000E+000
  0.000000000000000E+000  0.000000000000000E+000  0.000000000000000E+000
  0.000000000000000E+000  0.000000000000000E+000  0.000000000000000E+000
  0.000000000000000E+000  0.000000000000000E+000  0.000000000000000E+000
  0.000000000000000E+000  0.000000000000000E+000  0.000000000000000E+000
  0.000000000000000E+000  0.000000000000000E+000  0.000000000000000E+000
  0.000000000000000E+000  0.000000000000000E+000  0.000000000000000E+000
  0.000000000000000E+000  0.000000000000000E+000  0.000000000000000E+000
  0.000000000000000E+000  0.000000000000000E+000  0.000000000000000E+000
  0.000000000000000E+000  0.000000000000000E+000  0.000000000000000E+000
  0.000000000000000E+000  0.000000000000000E+000  0.000000000000000E+000
  0.000000000000000E+000  0.000000000000000E+000  0.000000000000000E+000
  0.000000000000000E+000  0.000000000000000E+000  0.000000000000000E+000
  0.000000000000000E+000  0.000000000000000E+000  0.000000000000000E+000
  0.000000000000000E+000  0.000000000000000E+000  0.000000000000000E+000
  0.000000000000000E+000  0.000000000000000E+000  0.000000000000000E+000
  0.000000000000000E+000  0.000000000000000E+000  0.000000000000000E+000
  0.000000000000000E+000  0.000000000000000E+000  0.000000000000000E+000
 initial spin: 
  0.128728312032756       1.813635466908092E-002  1.342991528826657E-002
 -1.862824422892816E-004  2.863750040724596E-002 -2.612044958422931E-003
  3.109496244679326E-003  1.849663883200758E-002  4.279715231889138E-003
  8.019690010600398E-003  1.332568853316223E-002  2.086269735084922E-002
  1.732322788996158E-003  1.995795029491997E-002  9.879052929744690E-003
  4.786762518590223E-003  2.242247088173057E-002  1.338002531495180E-002
  1.215246745237324E-002  2.842850695920302E-002  3.078155958638316E-002
  1.331477119896707E-002  2.265236775126663E-002  1.559796623331492E-002
 -1.236747491023939E-003 -1.006239478107978E-002 -1.273414359711658E-002
 -4.873880853473240E-003 -3.015873308496211E-002 -1.531963028349402E-002
  9.105302480235968E-003 -2.126295835512299E-002 -1.490095749664298E-002
 -7.828743974831756E-003 -2.985908930218287E-002 -6.314433499348006E-003
 -2.323891291851687E-003 -4.443042294856714E-002 -1.857695732879382E-002
  1.033146167370206E-003 -2.858775811524814E-002 -1.124704988411913E-002
  2.398615732514640E-003 -3.198810539177359E-002 -1.510659487021706E-002
  7.914545446014323E-004 -3.235161367029078E-002 -1.114996571624326E-002
 -2.644708221760056E-003 -5.835989300846004E-003  1.674147512799609E-003
  1.193170706714877E-002  2.093138852197667E-003 -1.354445428588872E-003
  1.069231074034870E-002  2.042012925152587E-003  5.908682518409253E-003
  3.040736496714474E-003 -8.799525070291988E-003 -5.728851835495602E-003
  3.621197633218904E-003  4.137740562379017E-003 -8.490017349172655E-003
 -5.556830984243455E-004 -4.555121347377069E-003 -3.215445593983064E-003
 -5.405308152495762E-003 -2.342326085107980E-004  4.351583036635703E-003
  1.533730720101253E-003  2.829865687022798E-003 -2.891878408346407E-003
 -1.534308986410568E-003 -4.367723272510725E-004 -5.862216400712491E-003
 -4.849946284031977E-003 -4.734309210126126E-003 -4.736177346714284E-003
 -4.325985507462878E-003  3.684421230250660E-003 -3.192734366191447E-003
  4.645240370120066E-003  1.376176603329357E-003 -7.391852032323091E-003
  2.876074960391521E-003  5.310789291258966E-003 -7.653306547102478E-003
  1.373547108008007E-002 -5.848798252757758E-003 -1.032545439746322E-003
  1.325737301500207E-002 -1.521925925674454E-003 -2.609471012753252E-003
  1.504685310410315E-003  3.264442061886096E-003 -3.345515262444954E-003
 target spin: 
  0.191220000000000        1.08093000000000       0.646010000000000     
  0.191220000000000        1.08093000000000       0.646010000000000     
  0.191220000000000        1.08093000000000       0.646010000000000     
  0.191220000000000        1.08093000000000       0.646010000000000     
  0.191220000000000        1.08093000000000       0.646010000000000     
  0.191220000000000        1.08093000000000       0.646010000000000     
  0.191220000000000        1.08093000000000       0.646010000000000     
  0.191220000000000        1.08093000000000       0.646010000000000     
 -0.140960000000000       -1.15518000000000      -0.517680000000000     
 -0.191220000000000       -1.08093000000000      -0.646010000000000     
 -0.191220000000000       -1.08093000000000      -0.646010000000000     
 -0.191220000000000       -1.08093000000000      -0.646010000000000     
 -0.191220000000000       -1.08093000000000      -0.646010000000000     
 -0.191220000000000       -1.08093000000000      -0.646010000000000     
 -2.239000000000000E-002  -1.11948000000000      -0.607100000000000     
 -0.191220000000000       -1.08093000000000      -0.646010000000000     
  0.000000000000000E+000  0.000000000000000E+000  0.000000000000000E+000
  0.000000000000000E+000  0.000000000000000E+000  0.000000000000000E+000
  0.000000000000000E+000  0.000000000000000E+000  0.000000000000000E+000
  0.000000000000000E+000  0.000000000000000E+000  0.000000000000000E+000
  0.000000000000000E+000  0.000000000000000E+000  0.000000000000000E+000
  0.000000000000000E+000  0.000000000000000E+000  0.000000000000000E+000
  0.000000000000000E+000  0.000000000000000E+000  0.000000000000000E+000
  0.000000000000000E+000  0.000000000000000E+000  0.000000000000000E+000
  0.000000000000000E+000  0.000000000000000E+000  0.000000000000000E+000
  0.000000000000000E+000  0.000000000000000E+000  0.000000000000000E+000
  0.000000000000000E+000  0.000000000000000E+000  0.000000000000000E+000
  0.000000000000000E+000  0.000000000000000E+000  0.000000000000000E+000
  0.000000000000000E+000  0.000000000000000E+000  0.000000000000000E+000
  0.000000000000000E+000  0.000000000000000E+000  0.000000000000000E+000
  0.000000000000000E+000  0.000000000000000E+000  0.000000000000000E+000
  0.000000000000000E+000  0.000000000000000E+000  0.000000000000000E+000
Step (Outer -- Inner) =  1 -- 1       RMS =  7.185464323572E-01
 -------------------------------------------------------------------------------
 restriction of this step =    3.00000000000000     
 alpha_trial before restrict =   1.000000000000000E-002
 boundary before =   1.145117605218920E-002
 trial need restriction: false
 delta delta lambda:
 -6.249168796724395E-004 -1.062793645330919E-002 -6.325800847117334E-003
 -1.914062824422893E-003 -1.052292499592754E-002 -6.486220449584229E-003
 -1.881105037553207E-003 -1.062433361167992E-002 -6.417302847681108E-003
 -1.832003099893996E-003 -1.067604311466838E-002 -6.251473026491507E-003
 -1.894876772110038E-003 -1.060972049705080E-002 -6.361309470702553E-003
 -1.864332374814098E-003 -1.058507529118269E-002 -6.326299746850481E-003
 -1.790675325476268E-003 -1.052501493040797E-002 -6.152284404136168E-003
 -1.779052288010329E-003 -1.058277632248733E-002 -6.304120337666851E-003
  1.397232525089761E-003  1.145117605218920E-002  5.049458564028835E-003
  1.863461191465268E-003  1.050771266915038E-002  6.306903697165059E-003
  2.003253024802360E-003  1.059667041644877E-002  6.311090425033570E-003
  1.833912560251683E-003  1.051070910697817E-002  6.396955665006520E-003
  1.888961087081483E-003  1.036499577051433E-002  6.274330426712061E-003
  1.922531461673702E-003  1.052342241884752E-002  6.347629501158808E-003
  2.478861573251464E-004  1.087491894608226E-002  5.919934051297830E-003
  1.920114545446014E-003  1.048578386329709E-002  6.348600342837567E-003
  0.000000000000000E+000  0.000000000000000E+000  0.000000000000000E+000
  0.000000000000000E+000  0.000000000000000E+000  0.000000000000000E+000
  0.000000000000000E+000  0.000000000000000E+000  0.000000000000000E+000
  0.000000000000000E+000  0.000000000000000E+000  0.000000000000000E+000
  0.000000000000000E+000  0.000000000000000E+000  0.000000000000000E+000
  0.000000000000000E+000  0.000000000000000E+000  0.000000000000000E+000
  0.000000000000000E+000  0.000000000000000E+000  0.000000000000000E+000
  0.000000000000000E+000  0.000000000000000E+000  0.000000000000000E+000
  0.000000000000000E+000  0.000000000000000E+000  0.000000000000000E+000
  0.000000000000000E+000  0.000000000000000E+000  0.000000000000000E+000
  0.000000000000000E+000  0.000000000000000E+000  0.000000000000000E+000
  0.000000000000000E+000  0.000000000000000E+000  0.000000000000000E+000
  0.000000000000000E+000  0.000000000000000E+000  0.000000000000000E+000
  0.000000000000000E+000  0.000000000000000E+000  0.000000000000000E+000
  0.000000000000000E+000  0.000000000000000E+000  0.000000000000000E+000
  0.000000000000000E+000  0.000000000000000E+000  0.000000000000000E+000
 trial delta lambda:
 -6.249168796724395E-004 -1.062793645330919E-002 -6.325800847117334E-003
 -1.914062824422893E-003 -1.052292499592754E-002 -6.486220449584229E-003
 -1.881105037553207E-003 -1.062433361167992E-002 -6.417302847681108E-003
 -1.832003099893996E-003 -1.067604311466838E-002 -6.251473026491507E-003
 -1.894876772110038E-003 -1.060972049705080E-002 -6.361309470702553E-003
 -1.864332374814098E-003 -1.058507529118269E-002 -6.326299746850481E-003
 -1.790675325476268E-003 -1.052501493040797E-002 -6.152284404136168E-003
 -1.779052288010329E-003 -1.058277632248733E-002 -6.304120337666851E-003
  1.397232525089761E-003  1.145117605218920E-002  5.049458564028835E-003
  1.863461191465268E-003  1.050771266915038E-002  6.306903697165059E-003
  2.003253024802360E-003  1.059667041644877E-002  6.311090425033570E-003
  1.833912560251683E-003  1.051070910697817E-002  6.396955665006520E-003
  1.888961087081483E-003  1.036499577051433E-002  6.274330426712061E-003
  1.922531461673702E-003  1.052342241884752E-002  6.347629501158808E-003
  2.478861573251464E-004  1.087491894608226E-002  5.919934051297830E-003
  1.920114545446014E-003  1.048578386329709E-002  6.348600342837567E-003
  0.000000000000000E+000  0.000000000000000E+000  0.000000000000000E+000
  0.000000000000000E+000  0.000000000000000E+000  0.000000000000000E+000
  0.000000000000000E+000  0.000000000000000E+000  0.000000000000000E+000
  0.000000000000000E+000  0.000000000000000E+000  0.000000000000000E+000
  0.000000000000000E+000  0.000000000000000E+000  0.000000000000000E+000
  0.000000000000000E+000  0.000000000000000E+000  0.000000000000000E+000
  0.000000000000000E+000  0.000000000000000E+000  0.000000000000000E+000
  0.000000000000000E+000  0.000000000000000E+000  0.000000000000000E+000
  0.000000000000000E+000  0.000000000000000E+000  0.000000000000000E+000
  0.000000000000000E+000  0.000000000000000E+000  0.000000000000000E+000
  0.000000000000000E+000  0.000000000000000E+000  0.000000000000000E+000
  0.000000000000000E+000  0.000000000000000E+000  0.000000000000000E+000
  0.000000000000000E+000  0.000000000000000E+000  0.000000000000000E+000
  0.000000000000000E+000  0.000000000000000E+000  0.000000000000000E+000
  0.000000000000000E+000  0.000000000000000E+000  0.000000000000000E+000
  0.000000000000000E+000  0.000000000000000E+000  0.000000000000000E+000
       N       E                     dE             d eps       ncg     rms          rms(c)
DIA:   1     0.364919752144E+04    0.36492E+04    0.00000E+00     0   0.000E+00
 current spin(trial):
  0.128715890455408       1.801224030272577E-002  1.335730801549631E-002
 -2.091027997522007E-004  2.851419107937712E-002 -2.686529359691189E-003
  3.086542212838540E-003  1.836736094680488E-002  4.201845593424348E-003
  7.998075640687745E-003  1.319938326127222E-002  2.078969264156384E-002
  1.709214916441830E-003  1.983253348704697E-002  9.803685217647639E-003
  4.767347427075209E-003  2.230093581346267E-002  1.330614938647870E-002
  1.213119569534145E-002  2.830127738053518E-002  3.070926195937837E-002
  1.329278794347259E-002  2.253231434025150E-002  1.552672245486850E-002
 -1.222575806792974E-003 -9.931386639328721E-003 -1.267826023170410E-002
 -4.851143692310373E-003 -3.003613028462419E-002 -1.524530167143857E-002
  9.128496864299946E-003 -2.113790198525568E-002 -1.482829438205438E-002
 -7.806800752153018E-003 -2.973392323731933E-002 -6.239110728779944E-003
 -2.300837761126843E-003 -4.430761499764237E-002 -1.850254185330488E-002
  1.055613738586058E-003 -2.846778871229854E-002 -1.117595329060077E-002
  2.402110007830821E-003 -3.185593292075360E-002 -1.503577165746352E-002
  8.134367862150157E-004 -3.222864708169185E-002 -1.107306875205356E-002
 -2.645333719409429E-003 -5.835904282273457E-003  1.673951875749286E-003
  1.193128750598161E-002  2.093362434861982E-003 -1.353801506397138E-003
  1.069247615086843E-002  2.041866431503025E-003  5.908009301862958E-003
  3.040937026054155E-003 -8.799106667265454E-003 -5.729281752609902E-003
  3.621096423221314E-003  4.137179825425399E-003 -8.489643477331242E-003
 -5.559832294144223E-004 -4.554833395700413E-003 -3.215508526329075E-003
 -5.404826360788713E-003 -2.338861385278543E-004  4.351219279690278E-003
  1.533341478695249E-003  2.830092310727934E-003 -2.891532640475588E-003
 -1.533977001481008E-003 -4.368322587545973E-004 -5.862412404130427E-003
 -4.849956862841194E-003 -4.734165978570865E-003 -4.736198801791512E-003
 -4.325765129717739E-003  3.684644222251770E-003 -3.193029140875278E-003
  4.644593555988933E-003  1.376748540667659E-003 -7.391395238336720E-003
  2.875829305388902E-003  5.310691105844884E-003 -7.653262468290132E-003
  1.373548106934359E-002 -5.848762575858040E-003 -1.031979148983666E-003
  1.325814785702716E-002 -1.522237733959095E-003 -2.609419792761655E-003
  1.505253889387028E-003  3.264771759231364E-003 -3.345883702137192E-003
 cosine between target and trial:  -0.9996962    
 alpha_opt before restrict =   -85.1622281251980     
 boundary before =    97.5207667258341     
 restriction needed: true
 alpha_opt after restrict =   -2.61981824952073     
 boundary after =    3.00000000000000     
 delta delta lambda:
  0.164341781459613        2.79495412396591        1.66357065105828     
  0.503363734639651        2.76733801926281        1.70575809087311     
  0.494696435702280        2.79400664209923        1.68763401415331     
  0.481783518527978        2.80760530156250        1.64402378514539     
  0.498318151588791        2.79016365854583        1.67290877369026     
  0.490285530245843        2.78368241733032        1.66370185262058     
  0.470915064990396        2.76788763404650        1.61793898022391     
  0.467858417386117        2.78307783034730        1.65786907111711     
 -0.367446759330498       -3.01145117605219       -1.32791582818818     
 -0.490056424858900       -2.76333745380518       -1.65860104407744     
 -0.526819136303284       -2.78673172453334       -1.65970207741288     
 -0.482285671897516       -2.76412546249349       -1.68228307492091     
 -0.496762433944140       -2.72580550335037       -1.65003486596906     
 -0.505590832318726       -2.76746883245008       -1.66931119033436     
 -6.518955403372362E-002  -2.85990603064659       -1.55683506040622     
 -0.504955227278413       -2.75757057642287       -1.66956650405078     
  0.000000000000000E+000  0.000000000000000E+000  0.000000000000000E+000
  0.000000000000000E+000  0.000000000000000E+000  0.000000000000000E+000
  0.000000000000000E+000  0.000000000000000E+000  0.000000000000000E+000
  0.000000000000000E+000  0.000000000000000E+000  0.000000000000000E+000
  0.000000000000000E+000  0.000000000000000E+000  0.000000000000000E+000
  0.000000000000000E+000  0.000000000000000E+000  0.000000000000000E+000
  0.000000000000000E+000  0.000000000000000E+000  0.000000000000000E+000
  0.000000000000000E+000  0.000000000000000E+000  0.000000000000000E+000
  0.000000000000000E+000  0.000000000000000E+000  0.000000000000000E+000
  0.000000000000000E+000  0.000000000000000E+000  0.000000000000000E+000
  0.000000000000000E+000  0.000000000000000E+000  0.000000000000000E+000
  0.000000000000000E+000  0.000000000000000E+000  0.000000000000000E+000
  0.000000000000000E+000  0.000000000000000E+000  0.000000000000000E+000
  0.000000000000000E+000  0.000000000000000E+000  0.000000000000000E+000
  0.000000000000000E+000  0.000000000000000E+000  0.000000000000000E+000
  0.000000000000000E+000  0.000000000000000E+000  0.000000000000000E+000
 optimal delta lambda: 
  0.163716864579941        2.78432618751260        1.65724485021117     
  0.501449671815228        2.75681509426688        1.69927187042353     
  0.492815330664726        2.78338230848755        1.68121671130563     
  0.479951515428084        2.79692925844783        1.63777231211890     
  0.496423274816681        2.77955393804878        1.66654746421956     
  0.488421197871029        2.77309734203913        1.65737555287373     
  0.469124389664919        2.75736261911609        1.61178669581977     
  0.466079365098107        2.77249505402482        1.65156495077944     
 -0.366049526805408       -3.00000000000000       -1.32286636962415     
 -0.488192963667435       -2.75282974113603       -1.65229414038028     
 -0.524815883278482       -2.77613505411689       -1.65339098698785     
 -0.480451759337264       -2.75361475338651       -1.67588611925591     
 -0.494873472857058       -2.71544050757986       -1.64376053554234     
 -0.503668300857052       -2.75694541003123       -1.66296356083320     
 -6.494166787639848E-002  -2.84903111170050       -1.55091512635492     
 -0.503035112732967       -2.74708479255957       -1.66321790370794     
  0.000000000000000E+000  0.000000000000000E+000  0.000000000000000E+000
  0.000000000000000E+000  0.000000000000000E+000  0.000000000000000E+000
  0.000000000000000E+000  0.000000000000000E+000  0.000000000000000E+000
  0.000000000000000E+000  0.000000000000000E+000  0.000000000000000E+000
  0.000000000000000E+000  0.000000000000000E+000  0.000000000000000E+000
  0.000000000000000E+000  0.000000000000000E+000  0.000000000000000E+000
  0.000000000000000E+000  0.000000000000000E+000  0.000000000000000E+000
  0.000000000000000E+000  0.000000000000000E+000  0.000000000000000E+000
  0.000000000000000E+000  0.000000000000000E+000  0.000000000000000E+000
  0.000000000000000E+000  0.000000000000000E+000  0.000000000000000E+000
  0.000000000000000E+000  0.000000000000000E+000  0.000000000000000E+000
  0.000000000000000E+000  0.000000000000000E+000  0.000000000000000E+000
  0.000000000000000E+000  0.000000000000000E+000  0.000000000000000E+000
  0.000000000000000E+000  0.000000000000000E+000  0.000000000000000E+000
  0.000000000000000E+000  0.000000000000000E+000  0.000000000000000E+000
  0.000000000000000E+000  0.000000000000000E+000  0.000000000000000E+000
       N       E                     dE             d eps       ncg     rms          rms(c)
DIA:   1     0.364817493138E+04    0.36482E+04    0.00000E+00     0   0.000E+00
 diagonal gradient:
  2.252920178736065E-002  1.198005106771543E-002  1.174951173435568E-002
  1.189218220087006E-002  1.207248358709595E-002  1.176426772421389E-002
  1.268469063471079E-002  1.247371200490344E-002  1.248127822720347E-002
  1.197448365781911E-002  1.212123156744573E-002  1.191614439128657E-002
  1.242605949835883E-002  1.212449293835284E-002  1.220251865266440E-002
  1.085005567086772E-002  1.184488689976308E-002  1.204103619827138E-002
  1.227214024497906E-002  1.245625918648315E-002  1.204732619636906E-002
  1.277476497418507E-002  1.169472142677072E-002  1.158089096613309E-002
  1.036166276647644E-002  1.173784163571246E-002  1.130393090322541E-002
  1.268165015989535E-002  1.204369519219679E-002  1.212994249130702E-002
  1.189353889425042E-002  1.210276739683263E-002  1.183702194177218E-002
  1.251532452782309E-002  1.222057872511201E-002  1.207977237070889E-002
  1.250283434459565E-002  1.218038544674378E-002  1.220166805395484E-002
  1.192396018005595E-002  1.176383229639355E-002  1.154811150150588E-002
  1.297689223304018E-002  1.258951046468588E-002  1.241946465156406E-002
  1.159799829357075E-002  1.200701267412098E-002  1.242753294017817E-002
  0.000000000000000E+000  0.000000000000000E+000  0.000000000000000E+000
  0.000000000000000E+000  0.000000000000000E+000  0.000000000000000E+000
  0.000000000000000E+000  0.000000000000000E+000  0.000000000000000E+000
  0.000000000000000E+000  0.000000000000000E+000  0.000000000000000E+000
  0.000000000000000E+000  0.000000000000000E+000  0.000000000000000E+000
  0.000000000000000E+000  0.000000000000000E+000  0.000000000000000E+000
  0.000000000000000E+000  0.000000000000000E+000  0.000000000000000E+000
  0.000000000000000E+000  0.000000000000000E+000  0.000000000000000E+000
  0.000000000000000E+000  0.000000000000000E+000  0.000000000000000E+000
  0.000000000000000E+000  0.000000000000000E+000  0.000000000000000E+000
  0.000000000000000E+000  0.000000000000000E+000  0.000000000000000E+000
  0.000000000000000E+000  0.000000000000000E+000  0.000000000000000E+000
  0.000000000000000E+000  0.000000000000000E+000  0.000000000000000E+000
  0.000000000000000E+000  0.000000000000000E+000  0.000000000000000E+000
  0.000000000000000E+000  0.000000000000000E+000  0.000000000000000E+000
  0.000000000000000E+000  0.000000000000000E+000  0.000000000000000E+000
 maximum gradient appears at: 
 ( 1 , 1 ) ( 1 , 1 ) 
 maximum gradient: 
 0.22529202E-01 0.00000000E+00 
 current spin:
  0.132416722310872       5.149272458465929E-002  3.290173310252320E-002
  5.777048419503912E-003  6.191910538544124E-002  1.737864426146516E-002
  9.360706254204085E-003  5.321574814762461E-002  2.526344876591872E-002
  1.376686158863950E-002  4.722791575257268E-002  4.037862870210931E-002
  7.900907938238373E-003  5.365863238856323E-002  3.021512944743442E-002
  1.008615970632279E-002  5.526949526021774E-002  3.333654434123437E-002
  1.790962775468134E-002  6.277493041403311E-002  5.019927966989179E-002
  1.926882554741278E-002  5.507592506518649E-002  3.472455985177857E-002
 -5.029629243609858E-003 -4.527591968821716E-002 -2.768773363354859E-002
 -1.106497322922615E-002 -6.331297540321848E-002 -3.536186318503036E-002
  2.863384360142950E-003 -5.486187517729307E-002 -3.447218288794648E-002
 -1.384175366290117E-002 -6.350985517457265E-002 -2.655875633919007E-002
 -8.511212344518241E-003 -7.750553498859139E-002 -3.863357774367254E-002
 -4.972574596005729E-003 -6.102000156916745E-002 -3.045113850756218E-002
  1.555874707048729E-003 -6.785601238674271E-002 -3.436813045955804E-002
 -5.042745834481685E-003 -6.533589559143853E-002 -3.181966100126778E-002
 -2.512076901168789E-003 -5.864253288235865E-003  1.743163058781413E-003
  1.200761731031103E-002  2.087861292761214E-003 -1.531541464051741E-003
  1.063274901978590E-002  2.100432840163297E-003  6.053851203419261E-003
  2.974471853583605E-003 -8.919298894501670E-003 -5.613911088170696E-003
  3.634033707948910E-003  4.353852333363471E-003 -8.593336788083227E-003
 -4.512770500032367E-004 -4.586785615918060E-003 -3.217614076228707E-003
 -5.575682633484878E-003 -2.951997560800531E-004  4.455743448662300E-003
  1.624000382190192E-003  2.767498351852196E-003 -2.933204941859272E-003
 -1.613375375955680E-003 -4.043310348984254E-004 -5.873687870654200E-003
 -4.815827947747466E-003 -4.693525076198840E-003 -4.741256664982627E-003
 -4.419619420415548E-003  3.610855377135785E-003 -3.070582273298024E-003
  4.762997366658457E-003  1.203807901225256E-003 -7.481658999464529E-003
  2.937929780678453E-003  5.321137343602319E-003 -7.707027030432780E-003
  1.376287893801603E-002 -5.900536126257157E-003 -1.203313187691493E-003
  1.305716616504451E-002 -1.421296648172161E-003 -2.610442222040515E-003
  1.320488984426427E-003  3.155499412529357E-003 -3.248405655594551E-003
 target spin: 
  0.191220000000000        1.08093000000000       0.646010000000000     
  0.191220000000000        1.08093000000000       0.646010000000000     
  0.191220000000000        1.08093000000000       0.646010000000000     
  0.191220000000000        1.08093000000000       0.646010000000000     
  0.191220000000000        1.08093000000000       0.646010000000000     
  0.191220000000000        1.08093000000000       0.646010000000000     
  0.191220000000000        1.08093000000000       0.646010000000000     
  0.191220000000000        1.08093000000000       0.646010000000000     
 -0.140960000000000       -1.15518000000000      -0.517680000000000     
 -0.191220000000000       -1.08093000000000      -0.646010000000000     
 -0.191220000000000       -1.08093000000000      -0.646010000000000     
 -0.191220000000000       -1.08093000000000      -0.646010000000000     
 -0.191220000000000       -1.08093000000000      -0.646010000000000     
 -0.191220000000000       -1.08093000000000      -0.646010000000000     
 -2.239000000000000E-002  -1.11948000000000      -0.607100000000000     
 -0.191220000000000       -1.08093000000000      -0.646010000000000     
  0.000000000000000E+000  0.000000000000000E+000  0.000000000000000E+000
  0.000000000000000E+000  0.000000000000000E+000  0.000000000000000E+000
  0.000000000000000E+000  0.000000000000000E+000  0.000000000000000E+000
  0.000000000000000E+000  0.000000000000000E+000  0.000000000000000E+000
  0.000000000000000E+000  0.000000000000000E+000  0.000000000000000E+000
  0.000000000000000E+000  0.000000000000000E+000  0.000000000000000E+000
  0.000000000000000E+000  0.000000000000000E+000  0.000000000000000E+000
  0.000000000000000E+000  0.000000000000000E+000  0.000000000000000E+000
  0.000000000000000E+000  0.000000000000000E+000  0.000000000000000E+000
  0.000000000000000E+000  0.000000000000000E+000  0.000000000000000E+000
  0.000000000000000E+000  0.000000000000000E+000  0.000000000000000E+000
  0.000000000000000E+000  0.000000000000000E+000  0.000000000000000E+000
  0.000000000000000E+000  0.000000000000000E+000  0.000000000000000E+000
  0.000000000000000E+000  0.000000000000000E+000  0.000000000000000E+000
  0.000000000000000E+000  0.000000000000000E+000  0.000000000000000E+000
  0.000000000000000E+000  0.000000000000000E+000  0.000000000000000E+000
Step (Outer -- Inner) =  1 -- 2       RMS =  6.958348367955E-01
 -------------------------------------------------------------------------------
 restriction of this step =    3.00000000000000     
 alpha_trial before restrict =   1.624504779289256E-002
 boundary before =   3.547555617738567E-002
 trial need restriction: false
 delta delta lambda:
 -1.907281700442156E-003 -3.291421786159609E-002 -1.959691341179975E-002
 -5.928478064557118E-003 -3.258486277886227E-002 -2.009347541431454E-002
 -5.820052357498984E-003 -3.288073856990402E-002 -1.986039496790106E-002
 -5.673670590457184E-003 -3.305678721016145E-002 -1.936221735369800E-002
 -5.864747180064933E-003 -3.285128177804902E-002 -1.969465246230935E-002
 -5.782715286210995E-003 -3.278756788827383E-002 -1.959060992327991E-002
 -5.543411017925565E-003 -3.257414373769039E-002 -1.905157308611444E-002
 -5.503623853948317E-003 -3.278721011818577E-002 -1.953427267813081E-002
  4.336786954012541E-003  3.547555617738567E-002  1.565246482378806E-002
  5.765487223386120E-003  3.253904431743122E-002  1.952815991961685E-002
  6.204717694926608E-003  3.281185410448133E-002  1.954899102229666E-002
  5.675362902030297E-003  3.254041087150897E-002  1.980835504384882E-002
  5.845820599899465E-003  3.209106572780546E-002  1.942538753138344E-002
  5.954448190492225E-003  3.260022655433486E-002  1.966997795263714E-002
  7.666400881173847E-004  3.365090359734163E-002  1.832268561630037E-002
  5.949626242926697E-003  3.247277479309228E-002  1.964922525257799E-002
  0.000000000000000E+000  0.000000000000000E+000  0.000000000000000E+000
  0.000000000000000E+000  0.000000000000000E+000  0.000000000000000E+000
  0.000000000000000E+000  0.000000000000000E+000  0.000000000000000E+000
  0.000000000000000E+000  0.000000000000000E+000  0.000000000000000E+000
  0.000000000000000E+000  0.000000000000000E+000  0.000000000000000E+000
  0.000000000000000E+000  0.000000000000000E+000  0.000000000000000E+000
  0.000000000000000E+000  0.000000000000000E+000  0.000000000000000E+000
  0.000000000000000E+000  0.000000000000000E+000  0.000000000000000E+000
  0.000000000000000E+000  0.000000000000000E+000  0.000000000000000E+000
  0.000000000000000E+000  0.000000000000000E+000  0.000000000000000E+000
  0.000000000000000E+000  0.000000000000000E+000  0.000000000000000E+000
  0.000000000000000E+000  0.000000000000000E+000  0.000000000000000E+000
  0.000000000000000E+000  0.000000000000000E+000  0.000000000000000E+000
  0.000000000000000E+000  0.000000000000000E+000  0.000000000000000E+000
  0.000000000000000E+000  0.000000000000000E+000  0.000000000000000E+000
  0.000000000000000E+000  0.000000000000000E+000  0.000000000000000E+000
 trial delta lambda:
  0.161809582879498        2.75141196965101        1.63764793679937     
  0.495521193750671        2.72423023148802        1.67917839500922     
  0.486995278307227        2.75050156991765        1.66135631633773     
  0.474277844837626        2.76387247123767        1.61841009476520     
  0.490558527636616        2.74670265627073        1.64685281175725     
  0.482638482584818        2.74030977415086        1.63778494295045     
  0.463580978646994        2.72478847537840        1.59273512273365     
  0.460575741244158        2.73970784390663        1.63203067810131     
 -0.361712739851396       -2.96452444382261       -1.30721390480036     
 -0.482427476444049       -2.72029069681860       -1.63276598046066     
 -0.518611165583556       -2.74332320001241       -1.63384199596555     
 -0.474776396435234       -2.72107434251500       -1.65607776421206     
 -0.489027652257159       -2.68334944185205       -1.62433514801096     
 -0.497713852666560       -2.72434518347689       -1.64329358288056     
 -6.417502778828109E-002  -2.81538020810316       -1.53259244073862     
 -0.497085486490040       -2.71461201776648       -1.64356867845536     
  0.000000000000000E+000  0.000000000000000E+000  0.000000000000000E+000
  0.000000000000000E+000  0.000000000000000E+000  0.000000000000000E+000
  0.000000000000000E+000  0.000000000000000E+000  0.000000000000000E+000
  0.000000000000000E+000  0.000000000000000E+000  0.000000000000000E+000
  0.000000000000000E+000  0.000000000000000E+000  0.000000000000000E+000
  0.000000000000000E+000  0.000000000000000E+000  0.000000000000000E+000
  0.000000000000000E+000  0.000000000000000E+000  0.000000000000000E+000
  0.000000000000000E+000  0.000000000000000E+000  0.000000000000000E+000
  0.000000000000000E+000  0.000000000000000E+000  0.000000000000000E+000
  0.000000000000000E+000  0.000000000000000E+000  0.000000000000000E+000
  0.000000000000000E+000  0.000000000000000E+000  0.000000000000000E+000
  0.000000000000000E+000  0.000000000000000E+000  0.000000000000000E+000
  0.000000000000000E+000  0.000000000000000E+000  0.000000000000000E+000
  0.000000000000000E+000  0.000000000000000E+000  0.000000000000000E+000
  0.000000000000000E+000  0.000000000000000E+000  0.000000000000000E+000
  0.000000000000000E+000  0.000000000000000E+000  0.000000000000000E+000
       N       E                     dE             d eps       ncg     rms          rms(c)
DIA:   1     0.364819914740E+04    0.36482E+04    0.00000E+00     0   0.000E+00
 current spin(trial):
  0.132368250763655       5.108466659628454E-002  3.266418350069825E-002
  5.705915480824180E-003  6.151024647705559E-002  1.713412493419507E-002
  9.283383805916451E-003  5.279177509731948E-002  2.500631784257510E-002
  1.369719769521099E-002  4.681297025122398E-002  4.014060246235544E-002
  7.826291432725729E-003  5.324618858708809E-002  2.996531777373129E-002
  1.002023192648435E-002  5.486475439690002E-002  3.309076196596004E-002
  1.783867190259973E-002  6.235313556720840E-002  4.996156763618638E-002
  1.919574212185023E-002  5.467709952146237E-002  3.449059161410366E-002
 -4.983386816562457E-003 -4.484393458900225E-002 -2.750502719997137E-002
 -1.098844420546409E-002 -6.290452093978695E-002 -3.511556968290326E-002
  2.940138716426292E-003 -5.444987003256339E-002 -3.423199476395888E-002
 -1.376700308548928E-002 -6.309796560554616E-002 -2.631120402724488E-002
 -8.435723881042381E-003 -7.709989493438450E-002 -3.838696884329055E-002
 -4.899606689602015E-003 -6.062064560153007E-002 -3.021447362121667E-002
  1.565292316958371E-003 -6.741343747788539E-002 -3.412988912406245E-002
 -4.971699017544026E-003 -6.493276818503191E-002 -3.156699263432739E-002
 -2.513245262501143E-003 -5.863815407698642E-003  1.742197556388242E-003
  1.200701376931546E-002  2.087302963058641E-003 -1.529290563826297E-003
  1.063368004244864E-002  2.099525078938989E-003  6.052527522787808E-003
  2.975496488653749E-003 -8.917781028477421E-003 -5.615385588580509E-003
  3.634056193081493E-003  4.350557831634447E-003 -8.592024857842263E-003
 -4.526142630284003E-004 -4.586881462774714E-003 -3.217389668954371E-003
 -5.573171905865829E-003 -2.947230258871802E-004  4.454423430450702E-003
  1.623188517168466E-003  2.768211687627918E-003 -2.933186979594811E-003
 -1.612613981953706E-003 -4.047808280122551E-004 -5.872738890201989E-003
 -4.816595337197336E-003 -4.694775548452846E-003 -4.741156225313018E-003
 -4.418038881636810E-003  3.611826330744230E-003 -3.072657697747569E-003
  4.762254484453044E-003  1.206152326256118E-003 -7.481004109396733E-003
  2.937254111915432E-003  5.321012454706075E-003 -7.705833371425467E-003
  1.376227209312640E-002 -5.899506744067708E-003 -1.201028812746619E-003
  1.305949314663914E-002 -1.422651966217165E-003 -2.610567691255292E-003
  1.322851399240715E-003  3.157104238817321E-003 -3.249531109294490E-003
 cosine between target and trial:  -0.9996088    
 alpha_opt before restrict =   -40.5374744197006     
 boundary before =    88.5247904099493     
 restriction needed: true
 alpha_opt after restrict =   -1.37376685893214     
 boundary after =    3.00000000000000     
 delta delta lambda:
  0.163197074388003        2.81631395065375        1.67681519468222     
  0.507271828532136        2.78813259394880        1.71930365668753     
  0.497994353591630        2.81344928600801        1.69936006527001     
  0.485469158116085        2.82851293551156        1.65673336301376     
  0.501818678169044        2.81092880764842        1.68517826296570     
  0.494799596991699        2.80547711144289        1.67627583498268     
  0.474323462572913        2.78721541629272        1.63015300226617     
  0.470919063129570        2.80544649874857        1.67145532336907     
 -0.371078348297912       -3.03547555617739       -1.33930738475138     
 -0.493325473137975       -2.78421212490809       -1.67093228353406     
 -0.530908347194205       -2.80755516809917       -1.67271470246716     
 -0.485613961213404       -2.78432905447724       -1.69490725509796     
 -0.500199220219829       -2.74588071576258       -1.66213853634733     
 -0.509493969379560       -2.78944719955116       -1.68306698187412     
 -6.559776642344645E-002  -2.87934866481746       -1.56778554883537     
 -0.509081378132361       -2.77854175514011       -1.68129127148245     
  0.000000000000000E+000  0.000000000000000E+000  0.000000000000000E+000
  0.000000000000000E+000  0.000000000000000E+000  0.000000000000000E+000
  0.000000000000000E+000  0.000000000000000E+000  0.000000000000000E+000
  0.000000000000000E+000  0.000000000000000E+000  0.000000000000000E+000
  0.000000000000000E+000  0.000000000000000E+000  0.000000000000000E+000
  0.000000000000000E+000  0.000000000000000E+000  0.000000000000000E+000
  0.000000000000000E+000  0.000000000000000E+000  0.000000000000000E+000
  0.000000000000000E+000  0.000000000000000E+000  0.000000000000000E+000
  0.000000000000000E+000  0.000000000000000E+000  0.000000000000000E+000
  0.000000000000000E+000  0.000000000000000E+000  0.000000000000000E+000
  0.000000000000000E+000  0.000000000000000E+000  0.000000000000000E+000
  0.000000000000000E+000  0.000000000000000E+000  0.000000000000000E+000
  0.000000000000000E+000  0.000000000000000E+000  0.000000000000000E+000
  0.000000000000000E+000  0.000000000000000E+000  0.000000000000000E+000
  0.000000000000000E+000  0.000000000000000E+000  0.000000000000000E+000
  0.000000000000000E+000  0.000000000000000E+000  0.000000000000000E+000
 optimal delta lambda: 
  0.325006657267502        5.56772592030475        3.31446313148159     
   1.00279302228281        5.51236282543682        3.39848205169675     
  0.984989631898858        5.56395085592565        3.36071638160774     
  0.959747002953711        5.59238540674923        3.27514345777897     
  0.992377205805660        5.55763146391916        3.33203107472295     
  0.977438079576517        5.54578688559375        3.31406077793313     
  0.937904441219906        5.51200389167112        3.22288812499982     
  0.931494804373729        5.54515434265520        3.30348600147038     
 -0.732791088149307       -6.00000000000000       -2.64652128955174     
 -0.975752949582024       -5.50450282172669       -3.30369826399472     
  -1.04951951277776       -5.55087836811158       -3.30655669843271     
 -0.960390357648638       -5.50540339699224       -3.35098501931002     
 -0.989226872476988       -5.42923015761463       -3.28647368435829     
  -1.00720782204612       -5.51379238302806       -3.32636056475468     
 -0.129772794211728       -5.69472887292062       -3.10037798957400     
  -1.00616686462240       -5.49315377290659       -3.32485994993782     
  0.000000000000000E+000  0.000000000000000E+000  0.000000000000000E+000
  0.000000000000000E+000  0.000000000000000E+000  0.000000000000000E+000
  0.000000000000000E+000  0.000000000000000E+000  0.000000000000000E+000
  0.000000000000000E+000  0.000000000000000E+000  0.000000000000000E+000
  0.000000000000000E+000  0.000000000000000E+000  0.000000000000000E+000
  0.000000000000000E+000  0.000000000000000E+000  0.000000000000000E+000
  0.000000000000000E+000  0.000000000000000E+000  0.000000000000000E+000
  0.000000000000000E+000  0.000000000000000E+000  0.000000000000000E+000
  0.000000000000000E+000  0.000000000000000E+000  0.000000000000000E+000
  0.000000000000000E+000  0.000000000000000E+000  0.000000000000000E+000
  0.000000000000000E+000  0.000000000000000E+000  0.000000000000000E+000
  0.000000000000000E+000  0.000000000000000E+000  0.000000000000000E+000
  0.000000000000000E+000  0.000000000000000E+000  0.000000000000000E+000
  0.000000000000000E+000  0.000000000000000E+000  0.000000000000000E+000
  0.000000000000000E+000  0.000000000000000E+000  0.000000000000000E+000
  0.000000000000000E+000  0.000000000000000E+000  0.000000000000000E+000
       N       E                     dE             d eps       ncg     rms          rms(c)
DIA:   1     0.364500827909E+04    0.36450E+04    0.00000E+00     0   0.000E+00
 diagonal gradient:
  2.760941998445176E-002  1.309311851494733E-002  1.275608584511819E-002
  1.253931436060871E-002  1.330708671623969E-002  1.287111845160961E-002
  1.415138424887872E-002  1.357347469373111E-002  1.367296774380597E-002
  1.281809316645446E-002  1.330642192011207E-002  1.301206087629048E-002
  1.307827970291522E-002  1.326280554223163E-002  1.347036628331189E-002
  1.222694557283701E-002  1.320385881113426E-002  1.338507154399613E-002
  1.352328294512577E-002  1.374575186012988E-002  1.317622794586367E-002
  1.390566856238778E-002  1.292585954509540E-002  1.265040423066127E-002
  1.118184044814042E-002  1.292524782799010E-002  1.237605378181673E-002
  1.415648962037950E-002  1.337154468845872E-002  1.340049860064417E-002
  1.327704870977018E-002  1.337210250435500E-002  1.306001825553136E-002
  1.411562189485953E-002  1.340174354491905E-002  1.316916730468953E-002
  1.351275271556273E-002  1.340650105227451E-002  1.355560829358114E-002
  1.276939443318565E-002  1.303898182400678E-002  1.281409701283875E-002
  1.291854391707611E-002  1.401052877883803E-002  1.387469981399344E-002
  1.271091800356707E-002  1.313098755703732E-002  1.357236157262826E-002
  0.000000000000000E+000  0.000000000000000E+000  0.000000000000000E+000
  0.000000000000000E+000  0.000000000000000E+000  0.000000000000000E+000
  0.000000000000000E+000  0.000000000000000E+000  0.000000000000000E+000
  0.000000000000000E+000  0.000000000000000E+000  0.000000000000000E+000
  0.000000000000000E+000  0.000000000000000E+000  0.000000000000000E+000
  0.000000000000000E+000  0.000000000000000E+000  0.000000000000000E+000
  0.000000000000000E+000  0.000000000000000E+000  0.000000000000000E+000
  0.000000000000000E+000  0.000000000000000E+000  0.000000000000000E+000
  0.000000000000000E+000  0.000000000000000E+000  0.000000000000000E+000
  0.000000000000000E+000  0.000000000000000E+000  0.000000000000000E+000
  0.000000000000000E+000  0.000000000000000E+000  0.000000000000000E+000
  0.000000000000000E+000  0.000000000000000E+000  0.000000000000000E+000
  0.000000000000000E+000  0.000000000000000E+000  0.000000000000000E+000
  0.000000000000000E+000  0.000000000000000E+000  0.000000000000000E+000
  0.000000000000000E+000  0.000000000000000E+000  0.000000000000000E+000
  0.000000000000000E+000  0.000000000000000E+000  0.000000000000000E+000
 maximum gradient appears at: 
 ( 1 , 1 ) ( 1 , 1 ) 
 maximum gradient: 
 0.27609420E-01 0.00000000E+00 
Reach limitation of current step ( maximum gradient < 1.000E+00 in atom type 1 ), exit.
 Inner optimization for lambda ends.
 ===============================================================================
 final optimal lambda: 
  0.163716864579941        2.78432618751260        1.65724485021117     
  0.501449671815228        2.75681509426688        1.69927187042353     
  0.492815330664726        2.78338230848755        1.68121671130563     
  0.479951515428084        2.79692925844783        1.63777231211890     
  0.496423274816681        2.77955393804878        1.66654746421956     
  0.488421197871029        2.77309734203913        1.65737555287373     
  0.469124389664919        2.75736261911609        1.61178669581977     
  0.466079365098107        2.77249505402482        1.65156495077944     
 -0.366049526805408       -3.00000000000000       -1.32286636962415     
 -0.488192963667435       -2.75282974113603       -1.65229414038028     
 -0.524815883278482       -2.77613505411689       -1.65339098698785     
 -0.480451759337264       -2.75361475338651       -1.67588611925591     
 -0.494873472857058       -2.71544050757986       -1.64376053554234     
 -0.503668300857052       -2.75694541003123       -1.66296356083320     
 -6.494166787639848E-002  -2.84903111170050       -1.55091512635492     
 -0.503035112732967       -2.74708479255957       -1.66321790370794     
  0.000000000000000E+000  0.000000000000000E+000  0.000000000000000E+000
  0.000000000000000E+000  0.000000000000000E+000  0.000000000000000E+000
  0.000000000000000E+000  0.000000000000000E+000  0.000000000000000E+000
  0.000000000000000E+000  0.000000000000000E+000  0.000000000000000E+000
  0.000000000000000E+000  0.000000000000000E+000  0.000000000000000E+000
  0.000000000000000E+000  0.000000000000000E+000  0.000000000000000E+000
  0.000000000000000E+000  0.000000000000000E+000  0.000000000000000E+000
  0.000000000000000E+000  0.000000000000000E+000  0.000000000000000E+000
  0.000000000000000E+000  0.000000000000000E+000  0.000000000000000E+000
  0.000000000000000E+000  0.000000000000000E+000  0.000000000000000E+000
  0.000000000000000E+000  0.000000000000000E+000  0.000000000000000E+000
  0.000000000000000E+000  0.000000000000000E+000  0.000000000000000E+000
  0.000000000000000E+000  0.000000000000000E+000  0.000000000000000E+000
  0.000000000000000E+000  0.000000000000000E+000  0.000000000000000E+000
  0.000000000000000E+000  0.000000000000000E+000  0.000000000000000E+000
  0.000000000000000E+000  0.000000000000000E+000  0.000000000000000E+000
    0.150E+03
DAV:   2     0.884542761284E+03   -0.27647E+04   -0.32796E+04  5040   0.708E+02
 ===============================================================================
 Inner optimization for lambda begins ...
 Covergence criterion this loop:  1.000000000000000E-006
 initial lambda:
  0.163716864579941        2.78432618751260        1.65724485021117     
  0.501449671815228        2.75681509426688        1.69927187042353     
  0.492815330664726        2.78338230848755        1.68121671130563     
  0.479951515428084        2.79692925844783        1.63777231211890     
  0.496423274816681        2.77955393804878        1.66654746421956     
  0.488421197871029        2.77309734203913        1.65737555287373     
  0.469124389664919        2.75736261911609        1.61178669581977     
  0.466079365098107        2.77249505402482        1.65156495077944     
 -0.366049526805408       -3.00000000000000       -1.32286636962415     
 -0.488192963667435       -2.75282974113603       -1.65229414038028     
 -0.524815883278482       -2.77613505411689       -1.65339098698785     
 -0.480451759337264       -2.75361475338651       -1.67588611925591     
 -0.494873472857058       -2.71544050757986       -1.64376053554234     
 -0.503668300857052       -2.75694541003123       -1.66296356083320     
 -6.494166787639848E-002  -2.84903111170050       -1.55091512635492     
 -0.503035112732967       -2.74708479255957       -1.66321790370794     
  0.000000000000000E+000  0.000000000000000E+000  0.000000000000000E+000
  0.000000000000000E+000  0.000000000000000E+000  0.000000000000000E+000
  0.000000000000000E+000  0.000000000000000E+000  0.000000000000000E+000
  0.000000000000000E+000  0.000000000000000E+000  0.000000000000000E+000
  0.000000000000000E+000  0.000000000000000E+000  0.000000000000000E+000
  0.000000000000000E+000  0.000000000000000E+000  0.000000000000000E+000
  0.000000000000000E+000  0.000000000000000E+000  0.000000000000000E+000
  0.000000000000000E+000  0.000000000000000E+000  0.000000000000000E+000
  0.000000000000000E+000  0.000000000000000E+000  0.000000000000000E+000
  0.000000000000000E+000  0.000000000000000E+000  0.000000000000000E+000
  0.000000000000000E+000  0.000000000000000E+000  0.000000000000000E+000
  0.000000000000000E+000  0.000000000000000E+000  0.000000000000000E+000
  0.000000000000000E+000  0.000000000000000E+000  0.000000000000000E+000
  0.000000000000000E+000  0.000000000000000E+000  0.000000000000000E+000
  0.000000000000000E+000  0.000000000000000E+000  0.000000000000000E+000
  0.000000000000000E+000  0.000000000000000E+000  0.000000000000000E+000
 initial spin: 
  0.169254199788160       0.874259958538764       0.546612835531291     
  9.084137729935851E-002  0.692366602981395       0.403958827238836     
  0.107803113942982       0.688318725971710       0.408301497240145     
  0.140643134087319       0.722236714294533       0.421706442929806     
  0.105472400818684       0.672411355011856       0.394720227275537     
  0.118546912601676       0.698786635667387       0.405072311210568     
  0.105850352345325       0.732239981959858       0.460813371698935     
  0.124617052319320       0.729172197131893       0.414573851937893     
 -0.107698712623376      -0.758809113600041      -0.332072705461695     
 -0.140079225251926      -0.727996003963226      -0.406180397059239     
 -0.102839693676427      -0.684135390321804      -0.443430737777481     
 -0.110399598149216      -0.715818343805676      -0.400147484507688     
 -0.110134437825153      -0.710291629785903      -0.456539995251434     
 -0.137062205329734      -0.723778152357858      -0.395780475903834     
 -4.398915848602397E-002 -0.729811707191679      -0.410061429424152     
 -0.118957320147568      -0.680469264682189      -0.426297134985733     
  3.591635930915868E-004 -1.389804147343081E-003  6.930622204563580E-003
  6.064154740568192E-003  6.042117556106020E-003 -5.451933082566071E-003
  8.161678783477554E-003 -2.734393236732997E-003  4.635974124342657E-003
 -9.214174890136866E-003 -4.136210440951300E-003  3.895498837006133E-003
 -6.583248870317962E-003  2.100095978830981E-003 -1.888229262853032E-003
 -1.049646380383215E-002  5.472158224539558E-004 -2.505678808187805E-003
 -2.019290382837767E-003 -1.699016035240501E-003 -9.083498714060648E-003
  2.434230797744741E-004 -3.757872538014016E-003  8.382054955644316E-004
  2.649636667651408E-003 -6.873101773248371E-004 -1.729710388064066E-003
 -3.273196475531045E-004 -7.025332173759904E-003 -1.430799697271725E-002
 -1.888053535979340E-002 -5.504235678343345E-003 -4.176727168548716E-003
 -1.022428872062801E-002 -4.706238511943798E-003 -8.420472575275412E-003
 -2.013798346493753E-003  3.422100411798351E-004 -1.044728738264282E-002
  2.497430933482093E-003 -6.375626722482422E-003 -7.970707942697219E-003
  2.330159910107351E-003 -1.765611571766396E-003 -1.008326643414315E-002
 -4.639132441853242E-003  4.628385949215112E-003  1.005155920251936E-003
 target spin: 
  0.191220000000000        1.08093000000000       0.646010000000000     
  0.191220000000000        1.08093000000000       0.646010000000000     
  0.191220000000000        1.08093000000000       0.646010000000000     
  0.191220000000000        1.08093000000000       0.646010000000000     
  0.191220000000000        1.08093000000000       0.646010000000000     
  0.191220000000000        1.08093000000000       0.646010000000000     
  0.191220000000000        1.08093000000000       0.646010000000000     
  0.191220000000000        1.08093000000000       0.646010000000000     
 -0.140960000000000       -1.15518000000000      -0.517680000000000     
 -0.191220000000000       -1.08093000000000      -0.646010000000000     
 -0.191220000000000       -1.08093000000000      -0.646010000000000     
 -0.191220000000000       -1.08093000000000      -0.646010000000000     
 -0.191220000000000       -1.08093000000000      -0.646010000000000     
 -0.191220000000000       -1.08093000000000      -0.646010000000000     
 -2.239000000000000E-002  -1.11948000000000      -0.607100000000000     
 -0.191220000000000       -1.08093000000000      -0.646010000000000     
  0.000000000000000E+000  0.000000000000000E+000  0.000000000000000E+000
  0.000000000000000E+000  0.000000000000000E+000  0.000000000000000E+000
  0.000000000000000E+000  0.000000000000000E+000  0.000000000000000E+000
  0.000000000000000E+000  0.000000000000000E+000  0.000000000000000E+000
  0.000000000000000E+000  0.000000000000000E+000  0.000000000000000E+000
  0.000000000000000E+000  0.000000000000000E+000  0.000000000000000E+000
  0.000000000000000E+000  0.000000000000000E+000  0.000000000000000E+000
  0.000000000000000E+000  0.000000000000000E+000  0.000000000000000E+000
  0.000000000000000E+000  0.000000000000000E+000  0.000000000000000E+000
  0.000000000000000E+000  0.000000000000000E+000  0.000000000000000E+000
  0.000000000000000E+000  0.000000000000000E+000  0.000000000000000E+000
  0.000000000000000E+000  0.000000000000000E+000  0.000000000000000E+000
  0.000000000000000E+000  0.000000000000000E+000  0.000000000000000E+000
  0.000000000000000E+000  0.000000000000000E+000  0.000000000000000E+000
  0.000000000000000E+000  0.000000000000000E+000  0.000000000000000E+000
  0.000000000000000E+000  0.000000000000000E+000  0.000000000000000E+000
Step (Outer -- Inner) =  2 -- 1       RMS =  2.510564120135E-01
 -------------------------------------------------------------------------------
 restriction of this step =    3.00000000000000     
 alpha_trial before restrict =   1.000000000000000E-002
 boundary before =   4.085186449881435E-003
 trial need restriction: false
 delta delta lambda:
 -2.196580021184000E-004 -2.066700414612357E-003 -9.939716446870884E-004
 -1.003786227006415E-003 -3.885633970186053E-003 -2.420511727611640E-003
 -8.341688605701756E-004 -3.926112740282900E-003 -2.377085027598550E-003
 -5.057686591268140E-004 -3.586932857054670E-003 -2.243035570701937E-003
 -8.574759918131586E-004 -4.085186449881435E-003 -2.512897727244626E-003
 -7.267308739832404E-004 -3.821433643326129E-003 -2.409376887894316E-003
 -8.536964765467511E-004 -3.486900180401417E-003 -1.851966283010645E-003
 -6.660294768067973E-004 -3.517578028681065E-003 -2.314361480621066E-003
  3.326128737662423E-004  3.963708863999596E-003  1.856072945383046E-003
  5.114077474807410E-004  3.529339960367741E-003  2.398296029407609E-003
  8.838030632357276E-004  3.967946096781960E-003  2.025792622225190E-003
  8.082040185078361E-004  3.651116561943243E-003  2.458625154923120E-003
  8.108556217484708E-004  3.706383702140970E-003  1.894700047485656E-003
  5.415779467026646E-004  3.571518476421422E-003  2.502295240961661E-003
 -2.159915848602397E-004  3.896682928083206E-003  1.970385705758477E-003
  7.226267985243217E-004  4.004607353178114E-003  2.197128650142675E-003
  0.000000000000000E+000  0.000000000000000E+000  0.000000000000000E+000
  0.000000000000000E+000  0.000000000000000E+000  0.000000000000000E+000
  0.000000000000000E+000  0.000000000000000E+000  0.000000000000000E+000
  0.000000000000000E+000  0.000000000000000E+000  0.000000000000000E+000
  0.000000000000000E+000  0.000000000000000E+000  0.000000000000000E+000
  0.000000000000000E+000  0.000000000000000E+000  0.000000000000000E+000
  0.000000000000000E+000  0.000000000000000E+000  0.000000000000000E+000
  0.000000000000000E+000  0.000000000000000E+000  0.000000000000000E+000
  0.000000000000000E+000  0.000000000000000E+000  0.000000000000000E+000
  0.000000000000000E+000  0.000000000000000E+000  0.000000000000000E+000
  0.000000000000000E+000  0.000000000000000E+000  0.000000000000000E+000
  0.000000000000000E+000  0.000000000000000E+000  0.000000000000000E+000
  0.000000000000000E+000  0.000000000000000E+000  0.000000000000000E+000
  0.000000000000000E+000  0.000000000000000E+000  0.000000000000000E+000
  0.000000000000000E+000  0.000000000000000E+000  0.000000000000000E+000
  0.000000000000000E+000  0.000000000000000E+000  0.000000000000000E+000
 trial delta lambda:
 -2.196580021184000E-004 -2.066700414612357E-003 -9.939716446870884E-004
 -1.003786227006415E-003 -3.885633970186053E-003 -2.420511727611640E-003
 -8.341688605701756E-004 -3.926112740282900E-003 -2.377085027598550E-003
 -5.057686591268140E-004 -3.586932857054670E-003 -2.243035570701937E-003
 -8.574759918131586E-004 -4.085186449881435E-003 -2.512897727244626E-003
 -7.267308739832404E-004 -3.821433643326129E-003 -2.409376887894316E-003
 -8.536964765467511E-004 -3.486900180401417E-003 -1.851966283010645E-003
 -6.660294768067973E-004 -3.517578028681065E-003 -2.314361480621066E-003
  3.326128737662423E-004  3.963708863999596E-003  1.856072945383046E-003
  5.114077474807410E-004  3.529339960367741E-003  2.398296029407609E-003
  8.838030632357276E-004  3.967946096781960E-003  2.025792622225190E-003
  8.082040185078361E-004  3.651116561943243E-003  2.458625154923120E-003
  8.108556217484708E-004  3.706383702140970E-003  1.894700047485656E-003
  5.415779467026646E-004  3.571518476421422E-003  2.502295240961661E-003
 -2.159915848602397E-004  3.896682928083206E-003  1.970385705758477E-003
  7.226267985243217E-004  4.004607353178114E-003  2.197128650142675E-003
  0.000000000000000E+000  0.000000000000000E+000  0.000000000000000E+000
  0.000000000000000E+000  0.000000000000000E+000  0.000000000000000E+000
  0.000000000000000E+000  0.000000000000000E+000  0.000000000000000E+000
  0.000000000000000E+000  0.000000000000000E+000  0.000000000000000E+000
  0.000000000000000E+000  0.000000000000000E+000  0.000000000000000E+000
  0.000000000000000E+000  0.000000000000000E+000  0.000000000000000E+000
  0.000000000000000E+000  0.000000000000000E+000  0.000000000000000E+000
  0.000000000000000E+000  0.000000000000000E+000  0.000000000000000E+000
  0.000000000000000E+000  0.000000000000000E+000  0.000000000000000E+000
  0.000000000000000E+000  0.000000000000000E+000  0.000000000000000E+000
  0.000000000000000E+000  0.000000000000000E+000  0.000000000000000E+000
  0.000000000000000E+000  0.000000000000000E+000  0.000000000000000E+000
  0.000000000000000E+000  0.000000000000000E+000  0.000000000000000E+000
  0.000000000000000E+000  0.000000000000000E+000  0.000000000000000E+000
  0.000000000000000E+000  0.000000000000000E+000  0.000000000000000E+000
  0.000000000000000E+000  0.000000000000000E+000  0.000000000000000E+000
       N       E                     dE             d eps       ncg     rms          rms(c)
DIA:   1     0.873677169782E+03    0.87368E+03    0.00000E+00     0   0.000E+00
 current spin(trial):
  0.169246964993692       0.873980323632219       0.546528883000409     
  9.057999108657282E-002  0.691584435135984       0.403456513271719     
  0.107646064469436       0.687470131911536       0.407814751713001     
  0.140555230512865       0.721546169551121       0.421270387003474     
  0.105278777733003       0.671569014135494       0.394185267570388     
  0.118387034559964       0.698013134037813       0.404564273530206     
  0.105650241987999       0.731552030272186       0.460493938798063     
  0.124486292641927       0.728484368850185       0.414089386360763     
 -0.107635849226629      -0.758042383539412      -0.331698599901749     
 -0.139994996854287      -0.727312034261348      -0.405687868881868     
 -0.102634273325065      -0.683342166845931      -0.443043622885852     
 -0.110210562841448      -0.715109490746601      -0.399619939204513     
 -0.109947436225844      -0.709592589577098      -0.456204219416035     
 -0.136961107558030      -0.723070035990695      -0.395266305574898     
 -4.401590979971016E-002 -0.729036678113673      -0.409673379571902     
 -0.118802324527425      -0.679661218679987      -0.425850808225382     
  3.594553045652090E-004 -1.390138735227098E-003  6.929746295597039E-003
  6.063592064476688E-003  6.041871731251208E-003 -5.452026256057838E-003
  8.163790547534159E-003 -2.732988659108721E-003  4.636259231651694E-003
 -9.214721164003788E-003 -4.136188275970456E-003  3.894396192278016E-003
 -6.582815268827551E-003  2.101192069128332E-003 -1.888543463757593E-003
 -1.049672687135858E-002  5.474199575400597E-004 -2.504945242703850E-003
 -2.020354444216439E-003 -1.699757822515825E-003 -9.084387068326599E-003
  2.423989014241150E-004 -3.756858371705735E-003  8.374584865994672E-004
  2.649601743722519E-003 -6.883429236083717E-004 -1.729050272816301E-003
 -3.255693783427140E-004 -7.025686670532051E-003 -1.430771481822223E-002
 -1.888162247233635E-002 -5.502203119922696E-003 -4.177814456752754E-003
 -1.022587905456497E-002 -4.705463590438540E-003 -8.422038691422842E-003
 -2.013715849290819E-003  3.436816897652574E-004 -1.044708448468639E-002
  2.498817882538792E-003 -6.375705714590038E-003 -7.970724379163619E-003
  2.331149972533804E-003 -1.764553134492798E-003 -1.008195071243655E-002
 -4.639078278492835E-003  4.628010098796830E-003  1.005696437838761E-003
 cosine between target and trial:  -0.9975369    
 alpha_opt before restrict =   -4.99687145992822     
 boundary before =    2.04131515798980     
 restriction needed: false
 delta delta lambda:
  0.109979938175147        1.03477033221444       0.497668825976170     
  0.502582861186745        1.94548698290521        1.21191910874003     
  0.417657626074966        1.96575418277830        1.19017591825059     
  0.253231866470821        1.79593117506658        1.12305907825513     
  0.429327207098295        2.04540034443969        1.25817559122596     
  0.363864807199538        1.91334270447791        1.20634403762087     
  0.427434852386321        1.74584609968704       0.927255712715535     
  0.333472397889488        1.76120610398738        1.15877104452788     
 -0.166534990486491       -1.98457807866241      -0.929311865778329     
 -0.256055285524750       -1.76709515199495       -1.20079599421001     
 -0.442508833351210       -1.98669960665112       -1.01428832639525     
 -0.404657363406619       -1.82806713108649       -1.23100201188462     
 -0.405984987065477       -1.85573867777927      -0.948651959288058     
 -0.271161116467210       -1.78821339282008       -1.25286706262852     
  0.108144210182140       -1.95101905410093      -0.986546795521265     
 -0.361809949371073       -2.00505542648462       -1.10007407321900     
  0.000000000000000E+000  0.000000000000000E+000  0.000000000000000E+000
  0.000000000000000E+000  0.000000000000000E+000  0.000000000000000E+000
  0.000000000000000E+000  0.000000000000000E+000  0.000000000000000E+000
  0.000000000000000E+000  0.000000000000000E+000  0.000000000000000E+000
  0.000000000000000E+000  0.000000000000000E+000  0.000000000000000E+000
  0.000000000000000E+000  0.000000000000000E+000  0.000000000000000E+000
  0.000000000000000E+000  0.000000000000000E+000  0.000000000000000E+000
  0.000000000000000E+000  0.000000000000000E+000  0.000000000000000E+000
  0.000000000000000E+000  0.000000000000000E+000  0.000000000000000E+000
  0.000000000000000E+000  0.000000000000000E+000  0.000000000000000E+000
  0.000000000000000E+000  0.000000000000000E+000  0.000000000000000E+000
  0.000000000000000E+000  0.000000000000000E+000  0.000000000000000E+000
  0.000000000000000E+000  0.000000000000000E+000  0.000000000000000E+000
  0.000000000000000E+000  0.000000000000000E+000  0.000000000000000E+000
  0.000000000000000E+000  0.000000000000000E+000  0.000000000000000E+000
  0.000000000000000E+000  0.000000000000000E+000  0.000000000000000E+000
 optimal delta lambda: 
  0.109760280173029        1.03270363179983       0.496674854331483     
  0.501579074959739        1.94160134893503        1.20949859701242     
  0.416823457214396        1.96182807003802        1.18779883322299     
  0.252726097811694        1.79234424220953        1.12081604268443     
  0.428469731106482        2.04131515798980        1.25566269349872     
  0.363138076325555        1.90952127083459        1.20393466073298     
  0.426581155909774        1.74235919950664       0.925403746432525     
  0.332806368412681        1.75768852595870        1.15645668304726     
 -0.166202377612725       -1.98061436979841      -0.927455792832946     
 -0.255543877777269       -1.76356581203458       -1.19839769818061     
 -0.441625030287975       -1.98273166055434       -1.01226253377302     
 -0.403849159388111       -1.82441601452454       -1.22854338672969     
 -0.405174131443729       -1.85203229407713      -0.946757259240572     
 -0.270619538520507       -1.78464187434365       -1.25036476738755     
  0.107928218597280       -1.94712237117285      -0.984576409815507     
 -0.361087322572549       -2.00105081913144       -1.09787694456886     
  0.000000000000000E+000  0.000000000000000E+000  0.000000000000000E+000
  0.000000000000000E+000  0.000000000000000E+000  0.000000000000000E+000
  0.000000000000000E+000  0.000000000000000E+000  0.000000000000000E+000
  0.000000000000000E+000  0.000000000000000E+000  0.000000000000000E+000
  0.000000000000000E+000  0.000000000000000E+000  0.000000000000000E+000
  0.000000000000000E+000  0.000000000000000E+000  0.000000000000000E+000
  0.000000000000000E+000  0.000000000000000E+000  0.000000000000000E+000
  0.000000000000000E+000  0.000000000000000E+000  0.000000000000000E+000
  0.000000000000000E+000  0.000000000000000E+000  0.000000000000000E+000
  0.000000000000000E+000  0.000000000000000E+000  0.000000000000000E+000
  0.000000000000000E+000  0.000000000000000E+000  0.000000000000000E+000
  0.000000000000000E+000  0.000000000000000E+000  0.000000000000000E+000
  0.000000000000000E+000  0.000000000000000E+000  0.000000000000000E+000
  0.000000000000000E+000  0.000000000000000E+000  0.000000000000000E+000
  0.000000000000000E+000  0.000000000000000E+000  0.000000000000000E+000
  0.000000000000000E+000  0.000000000000000E+000  0.000000000000000E+000
       N       E                     dE             d eps       ncg     rms          rms(c)
DIA:   1     0.867015482741E+03    0.86702E+03    0.00000E+00     0   0.000E+00
 diagonal gradient:
  3.597486348321857E-003  7.850869298978669E-002  8.852142877284251E-004
  0.209399329582477       0.174130316288856       0.171908570141590     
  0.176069832692088       0.181338492300202       0.177680174595830     
  0.124569341299720       0.159267271473408       0.159905695405686     
  0.214492727259877       0.179227086261350       0.184580529673099     
  0.181652715262230       0.169451991589365       0.175894842142990     
  0.193245691311123       0.154040427111132       0.135067712969931     
  0.137448091813628       0.154135820261149       0.168930887003989     
  0.125444743182432       0.161659167286570       0.165126985291312     
  0.135843239907514       0.154796829187270       0.171813300797728     
  0.197378303592585       0.168159961271661       0.159426086154285     
  0.192685286857853       0.164966277661335       0.186044669584702     
  0.192897823393881       0.161317618892759       0.148598088221033     
  0.140738091606966       0.165801900890522       0.173980811559398     
  0.216140279073111       0.164598597222859       0.157239983409351     
  0.179103032255909       0.173564672188123       0.165616012062178     
  0.000000000000000E+000  0.000000000000000E+000  0.000000000000000E+000
  0.000000000000000E+000  0.000000000000000E+000  0.000000000000000E+000
  0.000000000000000E+000  0.000000000000000E+000  0.000000000000000E+000
  0.000000000000000E+000  0.000000000000000E+000  0.000000000000000E+000
  0.000000000000000E+000  0.000000000000000E+000  0.000000000000000E+000
  0.000000000000000E+000  0.000000000000000E+000  0.000000000000000E+000
  0.000000000000000E+000  0.000000000000000E+000  0.000000000000000E+000
  0.000000000000000E+000  0.000000000000000E+000  0.000000000000000E+000
  0.000000000000000E+000  0.000000000000000E+000  0.000000000000000E+000
  0.000000000000000E+000  0.000000000000000E+000  0.000000000000000E+000
  0.000000000000000E+000  0.000000000000000E+000  0.000000000000000E+000
  0.000000000000000E+000  0.000000000000000E+000  0.000000000000000E+000
  0.000000000000000E+000  0.000000000000000E+000  0.000000000000000E+000
  0.000000000000000E+000  0.000000000000000E+000  0.000000000000000E+000
  0.000000000000000E+000  0.000000000000000E+000  0.000000000000000E+000
  0.000000000000000E+000  0.000000000000000E+000  0.000000000000000E+000
 maximum gradient appears at: 
 ( 1 , 15 ) ( 1 , 1 ) 
 maximum gradient: 
 0.21614028E+00 0.00000000E+00 
 current spin:
  0.169649060897670       0.955336170917175       0.547052499208701     
  0.195871699328527        1.03045825997832       0.611882001639499     
  0.181193150316859        1.04407367034462       0.619349801311929     
  0.172125057620970        1.00769849129232       0.600931311657109     
  0.197376041992020        1.03827032291950       0.626491112332280     
  0.184511930181316        1.02235881799256       0.616838208310670     
  0.188285322719407        1.00063373723287       0.585805539303383     
  0.170360652601067        1.00009495984415       0.609935105186758     
 -0.128547927199314       -1.07899358333747      -0.485220684523164     
 -0.174793133547720       -1.00099039972925      -0.612081061252048     
 -0.190006892978692       -1.01755146957272      -0.604811791697533     
 -0.188215389273217       -1.01678546262752      -0.628711432962284     
 -0.188291645876155       -1.00905706957892      -0.597226313983968     
 -0.175148682732668       -1.01967516753286      -0.613319952879199     
 -2.066152319854416E-002  -1.05030531810798      -0.564876207768781     
 -0.183629154529479       -1.02778099413651      -0.608123136280235     
 -2.820774592442816E-006 -1.533979248011640E-003  7.214056473285921E-003
  5.866646284516300E-003  6.508377539684935E-003 -5.390308434615856E-003
  7.334338845313478E-003 -2.906461659462104E-003  4.258147693082914E-003
 -9.539374244236499E-003 -3.951064665650296E-003  4.373730373739868E-003
 -6.451569204013550E-003  1.509724598004650E-003 -1.871570113952026E-003
 -1.015819733913353E-002  3.584543533337209E-005 -2.525141524191824E-003
 -1.548920086430721E-003 -1.386145137863353E-003 -8.595661783849979E-003
  6.297078380065020E-004 -4.204064972031463E-003  1.197258977701446E-003
  2.667064781869380E-003 -3.654819806739241E-004 -1.773473809204488E-003
 -1.080804684254074E-003 -7.443255067783819E-003 -1.402453018289468E-002
 -1.840272731210198E-002 -6.251598647286761E-003 -4.102483457907303E-003
 -9.775357405569288E-003 -5.353362257795642E-003 -8.048045581548272E-003
 -2.100161416391986E-003 -1.150722378992732E-004 -1.051124803686188E-002
  1.866562519974771E-003 -6.180495608975097E-003 -8.127332050296802E-003
  2.229847678398866E-003 -2.100150248458084E-003 -1.089173548274226E-002
 -4.655778481026964E-003  5.058964909204063E-003  1.070142720469015E-003
 target spin: 
  0.191220000000000        1.08093000000000       0.646010000000000     
  0.191220000000000        1.08093000000000       0.646010000000000     
  0.191220000000000        1.08093000000000       0.646010000000000     
  0.191220000000000        1.08093000000000       0.646010000000000     
  0.191220000000000        1.08093000000000       0.646010000000000     
  0.191220000000000        1.08093000000000       0.646010000000000     
  0.191220000000000        1.08093000000000       0.646010000000000     
  0.191220000000000        1.08093000000000       0.646010000000000     
 -0.140960000000000       -1.15518000000000      -0.517680000000000     
 -0.191220000000000       -1.08093000000000      -0.646010000000000     
 -0.191220000000000       -1.08093000000000      -0.646010000000000     
 -0.191220000000000       -1.08093000000000      -0.646010000000000     
 -0.191220000000000       -1.08093000000000      -0.646010000000000     
 -0.191220000000000       -1.08093000000000      -0.646010000000000     
 -2.239000000000000E-002  -1.11948000000000      -0.607100000000000     
 -0.191220000000000       -1.08093000000000      -0.646010000000000     
  0.000000000000000E+000  0.000000000000000E+000  0.000000000000000E+000
  0.000000000000000E+000  0.000000000000000E+000  0.000000000000000E+000
  0.000000000000000E+000  0.000000000000000E+000  0.000000000000000E+000
  0.000000000000000E+000  0.000000000000000E+000  0.000000000000000E+000
  0.000000000000000E+000  0.000000000000000E+000  0.000000000000000E+000
  0.000000000000000E+000  0.000000000000000E+000  0.000000000000000E+000
  0.000000000000000E+000  0.000000000000000E+000  0.000000000000000E+000
  0.000000000000000E+000  0.000000000000000E+000  0.000000000000000E+000
  0.000000000000000E+000  0.000000000000000E+000  0.000000000000000E+000
  0.000000000000000E+000  0.000000000000000E+000  0.000000000000000E+000
  0.000000000000000E+000  0.000000000000000E+000  0.000000000000000E+000
  0.000000000000000E+000  0.000000000000000E+000  0.000000000000000E+000
  0.000000000000000E+000  0.000000000000000E+000  0.000000000000000E+000
  0.000000000000000E+000  0.000000000000000E+000  0.000000000000000E+000
  0.000000000000000E+000  0.000000000000000E+000  0.000000000000000E+000
  0.000000000000000E+000  0.000000000000000E+000  0.000000000000000E+000
Step (Outer -- Inner) =  2 -- 2       RMS =  4.854021958325E-02
 -------------------------------------------------------------------------------
 restriction of this step =    3.00000000000000     
 alpha_trial before restrict =   1.624504779289256E-002
 boundary before =   2.165782273228441E-003
 trial need restriction: false
 delta delta lambda:
 -3.637601082778907E-004 -2.165782273228441E-003 -1.667930246467468E-003
  1.461015111623178E-005 -1.055878725220189E-003 -7.014013815388697E-004
 -2.135432251979624E-004 -8.371538873951135E-004 -5.774494457154431E-004
 -3.409120652081468E-004 -1.407473032607827E-003 -8.685182689836121E-004
  4.793325131962408E-005 -9.410896129307372E-004 -4.696860047766737E-004
 -1.531051010115338E-004 -1.183555854087842E-003 -6.202113818762280E-004
 -9.951639910994808E-005 -1.516165615535013E-003 -1.090488698912206E-003
 -3.793070678513770E-004 -1.526781053674965E-003 -7.265826213504530E-004
  2.218332980355345E-004  1.478356130351854E-003  6.400168740844138E-004
  2.979114891847912E-004  1.512948856778200E-003  6.968185559015695E-004
  7.337769067649583E-005  1.270548720771936E-003  7.922871726084908E-004
  9.788985075971413E-005  1.263752432859138E-003  4.303209794956383E-004
  9.681208251201886E-005  1.392656754950937E-003  9.075527617344828E-004
  2.939677213883670E-004  1.211975285578526E-003  6.830082623890906E-004
  1.496266714856209E-005  1.360379879844261E-003  8.055831366980452E-004
  1.671966054732373E-004  1.106595933473100E-003  7.488989446712056E-004
  0.000000000000000E+000  0.000000000000000E+000  0.000000000000000E+000
  0.000000000000000E+000  0.000000000000000E+000  0.000000000000000E+000
  0.000000000000000E+000  0.000000000000000E+000  0.000000000000000E+000
  0.000000000000000E+000  0.000000000000000E+000  0.000000000000000E+000
  0.000000000000000E+000  0.000000000000000E+000  0.000000000000000E+000
  0.000000000000000E+000  0.000000000000000E+000  0.000000000000000E+000
  0.000000000000000E+000  0.000000000000000E+000  0.000000000000000E+000
  0.000000000000000E+000  0.000000000000000E+000  0.000000000000000E+000
  0.000000000000000E+000  0.000000000000000E+000  0.000000000000000E+000
  0.000000000000000E+000  0.000000000000000E+000  0.000000000000000E+000
  0.000000000000000E+000  0.000000000000000E+000  0.000000000000000E+000
  0.000000000000000E+000  0.000000000000000E+000  0.000000000000000E+000
  0.000000000000000E+000  0.000000000000000E+000  0.000000000000000E+000
  0.000000000000000E+000  0.000000000000000E+000  0.000000000000000E+000
  0.000000000000000E+000  0.000000000000000E+000  0.000000000000000E+000
  0.000000000000000E+000  0.000000000000000E+000  0.000000000000000E+000
 trial delta lambda:
  0.109396520064751        1.03053784952660       0.495006924085015     
  0.501593685110855        1.94054547020981        1.20879719563088     
  0.416609913989198        1.96099091615063        1.18722138377727     
  0.252385185746486        1.79093676917692        1.11994752441545     
  0.428517664357802        2.04037406837687        1.25519300749394     
  0.362984971224543        1.90833771498050        1.20331444935110     
  0.426481639510665        1.74084303389111       0.924313257733613     
  0.332427061344830        1.75616174490502        1.15573010042591     
 -0.165980544314689       -1.97913601366806      -0.926815775958862     
 -0.255245966288085       -1.76205286317780       -1.19770087962470     
 -0.441551652597298       -1.98146111183357       -1.01147024660041     
[...]
  0.000000000000000E+000  0.000000000000000E+000  0.000000000000000E+000
  0.000000000000000E+000  0.000000000000000E+000  0.000000000000000E+000
  0.000000000000000E+000  0.000000000000000E+000  0.000000000000000E+000
  0.000000000000000E+000  0.000000000000000E+000  0.000000000000000E+000
  0.000000000000000E+000  0.000000000000000E+000  0.000000000000000E+000
  0.000000000000000E+000  0.000000000000000E+000  0.000000000000000E+000
  0.000000000000000E+000  0.000000000000000E+000  0.000000000000000E+000
  0.000000000000000E+000  0.000000000000000E+000  0.000000000000000E+000
  0.000000000000000E+000  0.000000000000000E+000  0.000000000000000E+000
  0.000000000000000E+000  0.000000000000000E+000  0.000000000000000E+000
       N       E                     dE             d eps       ncg     rms          rms(c)
DIA:   1    -0.166099931612E+03   -0.16610E+03    0.00000E+00     0   0.000E+00
 current spin(trial):
  0.191218297774522        1.08092331098142       0.646005258234585     
  0.191219801174590        1.08092817759656       0.646009037305441     
  0.191219400766526        1.08092617401470       0.646007974629895     
  0.191220233902194        1.08093161508206       0.646010288519111     
  0.191219079680694        1.08092668063386       0.646007886571170     
  0.191219356333946        1.08092579931849       0.646008348725737     
  0.191219453715989        1.08092513086862       0.646007972177771     
  0.191220451699295        1.08093284600336       0.646011692589654     
 -0.140959557323711       -1.15517735711788      -0.517678555821761     
 -0.191221607283139       -1.08093678581083      -0.646014600799493     
 -0.191221549521428       -1.08093830377604      -0.646015715406932     
 -0.191220759865504       -1.08093428116112      -0.646012428313642     
 -0.191222023019503       -1.08094242580093      -0.646016515406311     
 -0.191220114804820       -1.08092966776078      -0.646009827580499     
 -2.239000323764562E-002  -1.11948076459865      -0.607100691314380     
 -0.191221946281543       -1.08094121461474      -0.646015825140297     
  4.193554746676517E-005 -8.480162735407994E-006  1.721462178344373E-005
  5.580990452566879E-004 -7.784266078595826E-004  1.276383316053379E-003
  2.505522512070560E-003 -1.259309970026247E-003  1.962490880455428E-003
  6.984267775972093E-005  6.101949560534392E-005  9.393794518848574E-005
  2.532657556482031E-003 -1.257849250889157E-003  1.974899089785189E-003
  4.936470929647603E-005 -2.397735916619256E-005  3.505827167228008E-005
  1.748195194702085E-005 -2.161454202622608E-005  2.116610671554957E-005
  1.812580563852228E-003 -4.125762397222759E-004  3.852058005606510E-004
  4.803819078941435E-005  3.139627575623159E-005  3.785628053971446E-005
  5.702999073689814E-004 -6.927679119656965E-004  1.328076386947299E-003
  2.511332902346817E-003 -1.260281880998295E-003  1.959791259078144E-003
  3.267142935612559E-005 -3.751654910183477E-005  2.537954933380746E-005
  2.530908041092887E-003 -1.337615763956441E-003  1.935317467734826E-003
  2.898387411516795E-005 -9.575557593715376E-005 -4.203832301297042E-006
  1.574217053598400E-005 -1.861194097844705E-006  4.463968410529364E-005
  1.824284458302855E-003 -3.532505603688983E-004  4.266683098638618E-004
 cosine between target and trial:  -0.5529456    
 alpha_opt before restrict =   -7.79120297970877     
 boundary before =   9.731917408346467E-005
 restriction needed: false
 delta delta lambda:
 -3.122443464145564E-006  7.245630489463651E-005  2.672179303385118E-005
  4.784761582696797E-006  1.577544148721621E-005  8.282510424473133E-006
  6.895327103067926E-006  3.118916379524294E-005  2.254243491872907E-005
 -1.778983580366558E-006 -5.719427786408101E-006 -1.826648709861024E-005
 -3.881517836567203E-006  3.080951330652791E-005  2.004657393724803E-005
  6.300519673954715E-006  2.441003314047936E-005  3.643786359992148E-005
  1.278886648143895E-005  2.953855503411221E-005  3.918665915388526E-005
 -6.582256223017859E-006 -2.820004414322566E-005 -1.049573957777398E-005
 -3.933893670488335E-006 -2.607640570740327E-005 -8.114012075927784E-006
  3.242798948969476E-006  6.938319912045441E-005  3.003612454481323E-005
  1.399338099895133E-005  8.457604911435799E-005  3.402726766907604E-005
  4.384753666852134E-006  3.835370294500058E-005  2.245621981520166E-005
  2.037644816872890E-005  9.752208942763785E-005  8.107144317877070E-005
 -4.804982237432972E-006 -4.850750386230171E-006  2.851789362796830E-006
  2.771856833787295E-006  8.986392433800530E-006  1.729580776001874E-006
  1.266268100982057E-005  8.781493302978583E-005  7.494247989698500E-005
  0.000000000000000E+000  0.000000000000000E+000  0.000000000000000E+000
  0.000000000000000E+000  0.000000000000000E+000  0.000000000000000E+000
  0.000000000000000E+000  0.000000000000000E+000  0.000000000000000E+000
  0.000000000000000E+000  0.000000000000000E+000  0.000000000000000E+000
  0.000000000000000E+000  0.000000000000000E+000  0.000000000000000E+000
  0.000000000000000E+000  0.000000000000000E+000  0.000000000000000E+000
  0.000000000000000E+000  0.000000000000000E+000  0.000000000000000E+000
  0.000000000000000E+000  0.000000000000000E+000  0.000000000000000E+000
  0.000000000000000E+000  0.000000000000000E+000  0.000000000000000E+000
  0.000000000000000E+000  0.000000000000000E+000  0.000000000000000E+000
  0.000000000000000E+000  0.000000000000000E+000  0.000000000000000E+000
  0.000000000000000E+000  0.000000000000000E+000  0.000000000000000E+000
  0.000000000000000E+000  0.000000000000000E+000  0.000000000000000E+000
  0.000000000000000E+000  0.000000000000000E+000  0.000000000000000E+000
  0.000000000000000E+000  0.000000000000000E+000  0.000000000000000E+000
  0.000000000000000E+000  0.000000000000000E+000  0.000000000000000E+000
 optimal delta lambda: 
 -7.970771901068556E-005  1.667892137547100E-004 -2.134924844625770E-005
  1.985755832000241E-005  2.297153169130502E-005  1.183065822329692E-005
  1.722959975278705E-005  3.730466792840823E-005  5.390812641217813E-005
 -1.563263582822467E-006  2.638954614481717E-005 -9.298838275082273E-005
 -5.552360925289048E-005  5.358287012867050E-005  3.657180359845633E-005
  1.224077924496693E-005 -1.475341826562188E-005  1.462604783130491E-004
  5.254686027424647E-005 -1.004708147356475E-005  1.481150111326080E-004
 -2.084162450320378E-005 -5.611668480762868E-005  2.199174523455472E-006
 -6.173853234671032E-006 -5.146467757399980E-005  6.627022714989790E-006
 -4.017708723945605E-005  1.458546868692887E-004  2.559949950170274E-006
  2.282894826293470E-005  1.766266012463695E-004 -1.543222622585852E-005
 -2.847860100034877E-006  6.132529540722148E-005  3.874622575707642E-005
  4.173619575423497E-005  9.983030871137169E-005  2.219348377777993E-004
 -3.140629364388942E-005 -1.540707650770907E-005  2.244021519989118E-005
  1.559286596687888E-005  2.303364343030324E-005 -1.538330731573035E-005
  8.236796835408461E-007  8.895639694948455E-005  2.123585851160764E-004
  0.000000000000000E+000  0.000000000000000E+000  0.000000000000000E+000
  0.000000000000000E+000  0.000000000000000E+000  0.000000000000000E+000
  0.000000000000000E+000  0.000000000000000E+000  0.000000000000000E+000
  0.000000000000000E+000  0.000000000000000E+000  0.000000000000000E+000
  0.000000000000000E+000  0.000000000000000E+000  0.000000000000000E+000
  0.000000000000000E+000  0.000000000000000E+000  0.000000000000000E+000
  0.000000000000000E+000  0.000000000000000E+000  0.000000000000000E+000
  0.000000000000000E+000  0.000000000000000E+000  0.000000000000000E+000
  0.000000000000000E+000  0.000000000000000E+000  0.000000000000000E+000
  0.000000000000000E+000  0.000000000000000E+000  0.000000000000000E+000
  0.000000000000000E+000  0.000000000000000E+000  0.000000000000000E+000
  0.000000000000000E+000  0.000000000000000E+000  0.000000000000000E+000
  0.000000000000000E+000  0.000000000000000E+000  0.000000000000000E+000
  0.000000000000000E+000  0.000000000000000E+000  0.000000000000000E+000
  0.000000000000000E+000  0.000000000000000E+000  0.000000000000000E+000
  0.000000000000000E+000  0.000000000000000E+000  0.000000000000000E+000
       N       E                     dE             d eps       ncg     rms          rms(c)
DIA:   1    -0.166099931619E+03   -0.16610E+03    0.00000E+00     0   0.000E+00
 diagonal gradient:
  0.917051983518285       6.090732041504283E-002 -4.345594308860557E-002
  0.112286333355358       2.465378343948377E-002 -1.108027541971949E-003
  6.247257906689815E-002  2.001117150732606E-002  5.698528753823116E-002
  5.655721477462993E-002 -7.726402470976149E-002  0.173397152632806     
  0.513368570734054       2.770153109926199E-002  4.306112976917552E-002
  4.107328027880835E-002 -4.652278514425071E-002  0.119477226978107     
  0.123368083984351      -3.441403301529717E-002  0.111319251326261     
  0.107894662253822       6.912134817479880E-002 -2.511788719655099E-002
  8.430961267388859E-002  5.941242530262334E-002 -2.105634205139464E-002
 -0.439976467138833       5.397722128033783E-002 -1.355818096465578E-002
  4.126791121306850E-002  5.388999163150731E-002 -3.217414279800010E-002
 -6.201294932583964E-002  3.982332904060677E-002  3.660589332554669E-002
  5.236098800400042E-002  1.977600644502726E-002  7.896059363985908E-002
  0.221067842170754       0.175559836768872       0.274898689176454     
  0.217616997318188       3.999706087890562E-002 -0.314534913481565     
 -2.741727763225187E-002  1.902893162853848E-002  8.230497950150147E-002
  0.000000000000000E+000  0.000000000000000E+000  0.000000000000000E+000
  0.000000000000000E+000  0.000000000000000E+000  0.000000000000000E+000
  0.000000000000000E+000  0.000000000000000E+000  0.000000000000000E+000
  0.000000000000000E+000  0.000000000000000E+000  0.000000000000000E+000
  0.000000000000000E+000  0.000000000000000E+000  0.000000000000000E+000
  0.000000000000000E+000  0.000000000000000E+000  0.000000000000000E+000
  0.000000000000000E+000  0.000000000000000E+000  0.000000000000000E+000
  0.000000000000000E+000  0.000000000000000E+000  0.000000000000000E+000
  0.000000000000000E+000  0.000000000000000E+000  0.000000000000000E+000
  0.000000000000000E+000  0.000000000000000E+000  0.000000000000000E+000
  0.000000000000000E+000  0.000000000000000E+000  0.000000000000000E+000
  0.000000000000000E+000  0.000000000000000E+000  0.000000000000000E+000
  0.000000000000000E+000  0.000000000000000E+000  0.000000000000000E+000
  0.000000000000000E+000  0.000000000000000E+000  0.000000000000000E+000
  0.000000000000000E+000  0.000000000000000E+000  0.000000000000000E+000
  0.000000000000000E+000  0.000000000000000E+000  0.000000000000000E+000
 maximum gradient appears at: 
 ( 1 , 1 ) ( 1 , 1 ) 
 maximum gradient: 
 0.91705198E+00 0.00000000E+00 
Reach limitation of current step ( maximum gradient < 1.000E+00 in atom type 1 ), exit.
 Inner optimization for lambda ends.
 ===============================================================================
 final optimal lambda: 
  7.430315315124579E-004 -1.156754319633826E-002 -1.709273889968340E-003
  3.389781581226802E-003 -1.092325761882315E-002 -4.578889343795261E-003
 -1.265153840870830E-003 -8.462294246402388E-003 -4.876190211375818E-003
 -1.313626732665004E-003 -8.712111658745107E-003 -4.938632249597051E-003
 -1.263107546010402E-003 -8.424254427355537E-003 -4.810166634208812E-003
 -1.315271787399821E-003 -8.540799832631504E-003 -4.915968502857576E-003
  3.371140375026989E-003 -1.095618878668776E-002 -4.556866495511527E-003
 -6.297645748522115E-005 -1.178475768867253E-002 -1.761404267927155E-003
  4.508882689540447E-003  6.476378241270593E-003  1.316575210810537E-002
  1.578310067824495E-003  7.915845034207511E-003  4.834216224532148E-003
  1.422443568163071E-003  7.887853158681487E-003  4.741894708943455E-003
  1.579025656955356E-003  8.164470131628705E-003  5.004688469925779E-003
  1.415115903741275E-003  7.833385356170711E-003  4.720948248684536E-003
  1.656724893992491E-003  8.515647831430193E-003  5.261951232745069E-003
  1.084205201331593E-002  9.229464823908635E-003  8.779161897926534E-003
  1.465885488269063E-003  8.041832730558463E-003  4.910637731192432E-003
  0.000000000000000E+000  0.000000000000000E+000  0.000000000000000E+000
  0.000000000000000E+000  0.000000000000000E+000  0.000000000000000E+000
  0.000000000000000E+000  0.000000000000000E+000  0.000000000000000E+000
  0.000000000000000E+000  0.000000000000000E+000  0.000000000000000E+000
  0.000000000000000E+000  0.000000000000000E+000  0.000000000000000E+000
  0.000000000000000E+000  0.000000000000000E+000  0.000000000000000E+000
  0.000000000000000E+000  0.000000000000000E+000  0.000000000000000E+000
  0.000000000000000E+000  0.000000000000000E+000  0.000000000000000E+000
  0.000000000000000E+000  0.000000000000000E+000  0.000000000000000E+000
  0.000000000000000E+000  0.000000000000000E+000  0.000000000000000E+000
  0.000000000000000E+000  0.000000000000000E+000  0.000000000000000E+000
  0.000000000000000E+000  0.000000000000000E+000  0.000000000000000E+000
  0.000000000000000E+000  0.000000000000000E+000  0.000000000000000E+000
  0.000000000000000E+000  0.000000000000000E+000  0.000000000000000E+000
  0.000000000000000E+000  0.000000000000000E+000  0.000000000000000E+000
  0.000000000000000E+000  0.000000000000000E+000  0.000000000000000E+000
    0.113E-02
DAV:  52    -0.166309775802E+03    0.59364E-07   -0.75428E-06  5248   0.128E-02
   1 F= -.16630978E+03 E0= -.16630978E+03  d E =0.000000E+00  mag=     0.3238    -0.1664     0.2470
RMS:
1.003433904676E-05
Energy:
-166.30977580
Cartesian Coordinates:
0.00000000 0.00000000 0.00000000 12.80361991 6.95488675 2.52535803 23.04910960 5.40712734 5.05018527 8.53604236 4.12128130 2.52055436 13.65834674 2.57357702 5.05011102 17.92609336 6.95462403 2.52540542 17.92603912 5.40761726 5.05031954 13.65840098 4.12058379 2.52519690 6.82920049 2.06029189 1.26259845 11.09683862 3.34732537 3.78772110 11.09689287 4.89433214 1.26280697 15.36453100 6.18136562 3.78792962 11.95227097 2.05980196 1.26246418 16.21990910 3.34683544 3.78758683 16.21996335 4.89384221 1.26267270 20.48760148 6.18087568 3.78779535 3.41460025 1.03014595 0.63129922 7.68223837 2.31717942 3.15642187 7.68222918 3.86404917 0.62932551 11.94959715 5.15115150 3.15686304 8.53767073 1.02965602 0.63116495 12.80530885 2.31668949 3.15628760 12.80536310 3.86369626 0.63137348 17.07300123 5.15072974 3.15649612 10.24380074 3.09043784 1.89389767 14.51143887 4.37747132 4.41902032 14.51149312 5.92447809 1.89410619 18.77913124 7.21151156 4.41922884 15.36908377 3.09074075 1.89349342 19.63387652 4.37182728 4.42462362 19.63456360 5.92398816 1.89397192 23.90220172 7.21102163 4.41909457
Magnetization:
0.191241134 1.080963544 0.646016919 0.191218666 1.080928287 0.646010090 0.191222049 1.080922844 0.646007208 0.191232444 1.080935708 0.646011329 0.191217218 1.080927606 0.645997863 0.191219357 1.080935794 0.646026369 0.191226719 1.080937474 0.646029913 0.191217828 1.080944073 0.646010053 -0.140946335 -1.155175101 -0.517685563 -0.191219135 -1.080925492 -0.646012676 -0.191228058 -1.080921183 -0.646018931 -0.191219987 -1.080932347 -0.646000469 -0.191227217 -1.080930684 -0.646003861 -0.191220743 -1.080921966 -0.646021114 -0.022391869 -1.119476806 -0.607103285 -0.191194797 -1.080942964 -0.646000106 0.000039398 -0.000012524 0.000017793 0.000553574 -0.000783791 0.001278197 0.002507670 -0.001263369 0.001959492 0.000071523 0.000060236 0.000087518 0.002534575 -0.001263804 0.001974567 0.000047642 -0.000028819 0.000036493 0.000015344 -0.000026530 0.000024046 0.001809308 -0.000418441 0.000388890 0.000047972 0.000022354 0.000042260 0.000566670 -0.000694817 0.001327248 0.002509273 -0.001265018 0.001962628 0.000050815 -0.000046597 0.000023996 0.002532127 -0.001339611 0.001932598 0.000039023 -0.000105645 -0.000001166 0.000020848 -0.000004056 0.000036325 0.001819222 -0.000353501 0.000424581
Magnetization Difference from Target:
0.000021134 0.000033544 0.000006919 -0.000001334 -0.000001713 0.000000090 0.000002049 -0.000007156 -0.000002792 0.000012444 0.000005708 0.000001329 -0.000002782 -0.000002394 -0.000012137 -0.000000643 0.000005794 0.000016369 0.000006719 0.000007474 0.000019913 -0.000002172 0.000014073 0.000000053 0.000013665 0.000004899 -0.000005563 0.000000865 0.000004508 -0.000002676 -0.000008058 0.000008817 -0.000008931 0.000000013 -0.000002347 0.000009531 -0.000007217 -0.000000684 0.000006139 -0.000000743 0.000008034 -0.000011114 -0.000001869 0.000003194 -0.000003285 0.000025203 -0.000012964 0.000009894 0.000039398 -0.000012524 0.000017793 0.000553574 -0.000783791 0.001278197 0.002507670 -0.001263369 0.001959492 0.000071523 0.000060236 0.000087518 0.002534575 -0.001263804 0.001974567 0.000047642 -0.000028819 0.000036493 0.000015344 -0.000026530 0.000024046 0.001809308 -0.000418441 0.000388890 0.000047972 0.000022354 0.000042260 0.000566670 -0.000694817 0.001327248 0.002509273 -0.001265018 0.001962628 0.000050815 -0.000046597 0.000023996 0.002532127 -0.001339611 0.001932598 0.000039023 -0.000105645 -0.000001166 0.000020848 -0.000004056 0.000036325 0.001819222 -0.000353501 0.000424581
Atomic Force:
-0.0057368198 -0.0033451491 -0.0065206113 -0.0037314285 0.0057118148 0.0009481477 0.0025111660 0.0002854151 0.0017331733 -0.0080943818 -0.0055302884 0.0581877160 0.0007710226 0.0004933642 -0.0007576142 -0.0036444679 -0.0002208181 0.0014603849 0.0056529232 -0.0113049508 -0.0096477401 0.0039115427 -0.0016062309 -0.0000362323 0.0047561307 -0.0025516062 -0.0010725168 -0.0042262775 -0.0027085355 0.0048376683 0.0024820080 0.0018398861 -0.0025169337 0.0003073152 0.0004011791 -0.0061759137 0.0032342067 -0.0023525654 0.0060591438 0.0069654058 0.0016490717 0.0010860675 0.0022227198 0.0044127288 -0.0019473410 -0.0084290508 -0.0139578649 0.0070928994 0.0059047290 -0.0007682819 0.0031155570 0.0025881689 0.0058779583 -0.0102455160 0.0008714754 0.0013180894 0.0117333141 -0.0012849155 0.0013847233 -0.0008830454 -0.0063912612 0.0002021575 0.0038716807 0.0035687678 -0.0002229251 -0.0021448948 0.0003516915 0.0006557862 -0.0014651689 0.0097700555 -0.0034716209 -0.0058864884 -0.0020597092 0.0043352978 0.0012295882 -0.0031600390 -0.0012758799 -0.0023222654 -0.0028352842 -0.0022991084 0.0004387166 0.0093407703 -0.0099423039 -0.0013830754 -0.0208977748 -0.0068084466 0.0012096066 0.0051026449 0.0486316441 -0.0619808341 0.0028542555 -0.0076802520 0.0139145801 -0.0026755894 -0.0011522884 -0.0019320529
Magnetic Force:
-0.74303153E-03 0.11567543E-01 0.17092739E-02 -0.33897816E-02 0.10923258E-01 0.45788893E-02 0.12651538E-02 0.84622942E-02 0.48761902E-02 0.13136267E-02 0.87121117E-02 0.49386322E-02 0.12631075E-02 0.84242544E-02 0.48101666E-02 0.13152718E-02 0.85407998E-02 0.49159685E-02 -0.33711404E-02 0.10956189E-01 0.45568665E-02 0.62976457E-04 0.11784758E-01 0.17614043E-02 -0.45088827E-02 -0.64763782E-02 -0.13165752E-01 -0.15783101E-02 -0.79158450E-02 -0.48342162E-02 -0.14224436E-02 -0.78878532E-02 -0.47418947E-02 -0.15790257E-02 -0.81644701E-02 -0.50046885E-02 -0.14151159E-02 -0.78333854E-02 -0.47209482E-02 -0.16567249E-02 -0.85156478E-02 -0.52619512E-02 -0.10842052E-01 -0.92294648E-02 -0.87791619E-02 -0.14658855E-02 -0.80418327E-02 -0.49106377E-02 0.00000000E+00 0.00000000E+00 0.00000000E+00 0.00000000E+00 0.00000000E+00 0.00000000E+00 0.00000000E+00 0.00000000E+00 0.00000000E+00 0.00000000E+00 0.00000000E+00 0.00000000E+00 0.00000000E+00 0.00000000E+00 0.00000000E+00 0.00000000E+00 0.00000000E+00 0.00000000E+00 0.00000000E+00 0.00000000E+00 0.00000000E+00 0.00000000E+00 0.00000000E+00 0.00000000E+00 0.00000000E+00 0.00000000E+00 0.00000000E+00 0.00000000E+00 0.00000000E+00 0.00000000E+00 0.00000000E+00 0.00000000E+00 0.00000000E+00 0.00000000E+00 0.00000000E+00 0.00000000E+00 0.00000000E+00 0.00000000E+00 0.00000000E+00 0.00000000E+00 0.00000000E+00 0.00000000E+00 0.00000000E+00 0.00000000E+00 0.00000000E+00 0.00000000E+00 0.00000000E+00 0.00000000E+00
Time Cost:
0 DAYS 00:55:15

