 running on   32 total cores
 distrk:  each k-point on   32 cores,    1 groups
 distr:  one band on   32 cores,    1 groups
 using from now: INCAR     
 vasp.5.4.4.18Apr17-6-g9f103f2a35 (build Nov 22 2022 17:09:42) complex          
  
 POSCAR found type information on POSCAR  Ni O 
 POSCAR found :  2 types and      32 ions
 scaLAPACK will be used

 ----------------------------------------------------------------------------- 
|                                                                             |
|           W    W    AA    RRRRR   N    N  II  N    N   GGGG   !!!           |
|           W    W   A  A   R    R  NN   N  II  NN   N  G    G  !!!           |
|           W    W  A    A  R    R  N N  N  II  N N  N  G       !!!           |
|           W WW W  AAAAAA  RRRRR   N  N N  II  N  N N  G  GGG   !            |
|           WW  WW  A    A  R   R   N   NN  II  N   NN  G    G                |
|           W    W  A    A  R    R  N    N  II  N    N   GGGG   !!!           |
|                                                                             |
|      For optimal performance we recommend to set                            |
|        NCORE= 4 - approx SQRT( number of cores)                             |
|      NCORE specifies how many cores store one orbital (NPAR=cpu/NCORE).     |
|      This setting can  greatly improve the performance of VASP for DFT.     |
|      The default,   NCORE=1            might be grossly inefficient         |
|      on modern multi-core architectures or massively parallel machines.     |
|      Do your own testing !!!!                                               |
|      Unfortunately you need to use the default for GW and RPA calculations. |
|      (for HF NCORE is supported but not extensively tested yet)             |
|                                                                             |
 ----------------------------------------------------------------------------- 


 ----------------------------------------------------------------------------- 
|                                                                             |
|  ADVICE TO THIS USER RUNNING 'VASP/VAMP'   (HEAR YOUR MASTER'S VOICE ...):  |
|                                                                             |
|      You have a (more or less) 'large supercell' and for larger cells       |
|      it might be more efficient to use real space projection opertators     |
|      So try LREAL= Auto  in the INCAR   file.                               |
|      Mind:          For very  accurate calculation you might also keep the  |
|      reciprocal projection scheme          (i.e. LREAL=.FALSE.)             |
|                                                                             |
 ----------------------------------------------------------------------------- 

 LDA part: xc-table for Pade appr. of Perdew
 POSCAR, INCAR and KPOINTS ok, starting setup
 FFT: planning ...
 WAVECAR not read
 entering main loop
 -------------------------------------------------------------------------------
 SASC (Self-Adaptive Spin Constraint)
 Type of SASC calculation = 1
 --------------------------------------
 The DEFINITION of atomic spins which are constrained (MW):
 \vec{M}_{I}=
 \int_{\Omega_{I}} \vec{m}(\mathbf{r}) F_{I}(|\mathbf{r}|) d\mathbf{r}
 -------------------------------------------------------------------------------
 -------------------------------------------------------------------------------
 SASC(L) (Self-Adaptive Spin Constraint (Linear Lagragian))
 Initial trial step size (alpha_trial) = 1.000E-02
 Maximum number of steps in SC iteration = 100
 Number of INTERMEDIATE normal electronic steps = 0
 Convergence criterion of SC iteration (epsilon) = 1.000E-06
 Restriction of SC step size = 3.000E+00
 SASC electronic step begins from: 1
 Constrained atoms: 16/32
 Inner optimization algorithm: 1
 Inner diagonalization algorithm: 1
 Restriction of trial-step update: T
 Debug mode: F
 --------------------------------------
 The DEFINITION of atomic spins which are constrained (MW):
 \vec{M}_{I}=
 \int_{\Omega_{I}} \vec{m}(\mathbf{r}) F_{I}(|\mathbf{r}|) d\mathbf{r}
 -------------------------------------------------------------------------------
       N       E                     dE             d eps       ncg     rms          rms(c)
DAV:   1     0.364978607012E+04    0.36498E+04   -0.12127E+05  4896   0.253E+03
 ===============================================================================
 Inner optimization for lambda begins ...
 Covergence criterion this loop:  1.000000000000000E-006
 initial lambda:
  0.000000000000000E+000  0.000000000000000E+000  0.000000000000000E+000
  0.000000000000000E+000  0.000000000000000E+000  0.000000000000000E+000
  0.000000000000000E+000  0.000000000000000E+000  0.000000000000000E+000
  0.000000000000000E+000  0.000000000000000E+000  0.000000000000000E+000
  0.000000000000000E+000  0.000000000000000E+000  0.000000000000000E+000
  0.000000000000000E+000  0.000000000000000E+000  0.000000000000000E+000
  0.000000000000000E+000  0.000000000000000E+000  0.000000000000000E+000
  0.000000000000000E+000  0.000000000000000E+000  0.000000000000000E+000
  0.000000000000000E+000  0.000000000000000E+000  0.000000000000000E+000
  0.000000000000000E+000  0.000000000000000E+000  0.000000000000000E+000
  0.000000000000000E+000  0.000000000000000E+000  0.000000000000000E+000
  0.000000000000000E+000  0.000000000000000E+000  0.000000000000000E+000
  0.000000000000000E+000  0.000000000000000E+000  0.000000000000000E+000
  0.000000000000000E+000  0.000000000000000E+000  0.000000000000000E+000
  0.000000000000000E+000  0.000000000000000E+000  0.000000000000000E+000
  0.000000000000000E+000  0.000000000000000E+000  0.000000000000000E+000
  0.000000000000000E+000  0.000000000000000E+000  0.000000000000000E+000
  0.000000000000000E+000  0.000000000000000E+000  0.000000000000000E+000
  0.000000000000000E+000  0.000000000000000E+000  0.000000000000000E+000
  0.000000000000000E+000  0.000000000000000E+000  0.000000000000000E+000
  0.000000000000000E+000  0.000000000000000E+000  0.000000000000000E+000
  0.000000000000000E+000  0.000000000000000E+000  0.000000000000000E+000
  0.000000000000000E+000  0.000000000000000E+000  0.000000000000000E+000
  0.000000000000000E+000  0.000000000000000E+000  0.000000000000000E+000
  0.000000000000000E+000  0.000000000000000E+000  0.000000000000000E+000
  0.000000000000000E+000  0.000000000000000E+000  0.000000000000000E+000
  0.000000000000000E+000  0.000000000000000E+000  0.000000000000000E+000
  0.000000000000000E+000  0.000000000000000E+000  0.000000000000000E+000
  0.000000000000000E+000  0.000000000000000E+000  0.000000000000000E+000
  0.000000000000000E+000  0.000000000000000E+000  0.000000000000000E+000
  0.000000000000000E+000  0.000000000000000E+000  0.000000000000000E+000
  0.000000000000000E+000  0.000000000000000E+000  0.000000000000000E+000
 initial spin: 
  0.140620809729489      -1.308970303744826E-002  1.147552370404624E-002
  2.239129277179242E-002 -1.171048973250993E-002 -4.285818991096689E-003
  1.779957820265066E-002 -1.771256614258469E-002  1.337304577101267E-003
  1.915451008746746E-002 -2.272412756016599E-002  1.338260775290547E-002
  1.489310070077675E-002 -1.640544887191878E-002  6.442664871795421E-003
  1.658711218128980E-002 -1.957439374849443E-002  1.423361386645700E-002
  2.590988019326592E-002 -1.606405836296714E-002  2.484942874872468E-002
  2.298514837547063E-002 -1.896378339874855E-002  1.448574016200919E-002
 -1.733950057957350E-002  2.717318170910975E-002 -1.149310435595507E-002
 -1.863906820029176E-002  1.060840236222639E-002 -1.979585009994862E-002
  1.324198030693383E-003  1.290318757264760E-002 -1.215900382902973E-002
 -1.531716902442821E-002  4.014128752152666E-003 -7.291121494640184E-003
 -1.252358824374589E-002 -5.364980093587742E-003 -2.111830745808136E-002
 -6.554036290867800E-003  8.591826797510353E-003 -2.107518020958663E-002
 -1.307387853238135E-002  8.138117841973670E-003 -1.456538305909109E-002
 -1.811969213747030E-002  7.093647558351417E-003 -2.511319272620832E-003
  7.635555565369137E-004 -5.531380190894745E-003  1.528974587846648E-003
  1.151539927830291E-002  1.013684439507785E-003 -2.204134732716816E-003
  9.126357038919690E-003  2.995150306815971E-003  5.510405458039369E-003
  4.967676091708363E-003 -9.869547687138864E-003 -8.303839045393424E-003
  1.708466865694431E-003  3.302418510596735E-003 -1.167224269102646E-002
 -1.033541614531952E-003 -4.953477129009466E-003 -5.039832477923565E-003
 -5.664171615607918E-003  5.807625997194118E-004  3.498416413817255E-003
  3.576008987703139E-003  2.242407464394140E-003 -3.539732047052428E-003
  5.604721219990120E-004 -7.424258156531899E-005 -7.763814379998717E-003
 -4.045453845309945E-003 -2.503074243261716E-003 -1.447347844927956E-003
 -1.579498254888171E-003  5.172631550180741E-003 -1.538287308678224E-003
  2.741392244133463E-003  3.217907680831206E-003 -4.662438151846137E-003
  3.940708604271568E-003  7.547180114375175E-003 -8.583660638312642E-003
  1.387848893134497E-002 -3.453178889662360E-003 -2.442449296011952E-003
  1.151653432842667E-002  8.755364148176569E-004  6.139214922373508E-004
  1.122470079236701E-003 -9.347574694709227E-004 -7.355679194045141E-003
 target spin: 
  0.791920000000000      -0.805100000000000       0.589060000000000     
  0.791920000000000      -0.805100000000000       0.589060000000000     
  0.791920000000000      -0.805100000000000       0.589060000000000     
  0.791920000000000      -0.805100000000000       0.589060000000000     
  0.749880000000000      -0.890530000000000       0.516680000000000     
  0.791920000000000      -0.805100000000000       0.589060000000000     
  0.791920000000000      -0.805100000000000       0.589060000000000     
  0.764770000000000      -0.729100000000000       0.711230000000000     
 -0.791920000000000       0.805100000000000      -0.589060000000000     
 -0.729860000000000       0.760540000000000      -0.714980000000000     
 -0.791920000000000       0.805100000000000      -0.589060000000000     
 -0.791920000000000       0.805100000000000      -0.589060000000000     
 -0.641380000000000       0.847890000000000      -0.701450000000000     
 -0.791920000000000       0.805100000000000      -0.589060000000000     
 -0.851380000000000       0.769050000000000      -0.553190000000000     
 -0.791920000000000       0.805100000000000      -0.589060000000000     
  0.000000000000000E+000  0.000000000000000E+000  0.000000000000000E+000
  0.000000000000000E+000  0.000000000000000E+000  0.000000000000000E+000
  0.000000000000000E+000  0.000000000000000E+000  0.000000000000000E+000
  0.000000000000000E+000  0.000000000000000E+000  0.000000000000000E+000
  0.000000000000000E+000  0.000000000000000E+000  0.000000000000000E+000
  0.000000000000000E+000  0.000000000000000E+000  0.000000000000000E+000
  0.000000000000000E+000  0.000000000000000E+000  0.000000000000000E+000
  0.000000000000000E+000  0.000000000000000E+000  0.000000000000000E+000
  0.000000000000000E+000  0.000000000000000E+000  0.000000000000000E+000
  0.000000000000000E+000  0.000000000000000E+000  0.000000000000000E+000
  0.000000000000000E+000  0.000000000000000E+000  0.000000000000000E+000
  0.000000000000000E+000  0.000000000000000E+000  0.000000000000000E+000
  0.000000000000000E+000  0.000000000000000E+000  0.000000000000000E+000
  0.000000000000000E+000  0.000000000000000E+000  0.000000000000000E+000
  0.000000000000000E+000  0.000000000000000E+000  0.000000000000000E+000
  0.000000000000000E+000  0.000000000000000E+000  0.000000000000000E+000
Step (Outer -- Inner) =  1 -- 1       RMS =  7.190835143679E-01
 -------------------------------------------------------------------------------
 restriction of this step =    3.00000000000000     
 alpha_trial before restrict =   1.000000000000000E-002
 boundary before =   8.741245511280813E-003
 trial need restriction: false
 delta delta lambda:
 -6.512991902705110E-003  7.920102969625517E-003 -5.775844762959538E-003
 -7.695287072282076E-003  7.933895102674901E-003 -5.933458189910967E-003
 -7.741204217973493E-003  7.873874338574154E-003 -5.877226954228988E-003
 -7.727654899125325E-003  7.823758724398342E-003 -5.756773922470946E-003
 -7.349868992992233E-003  8.741245511280813E-003 -5.102373351282045E-003
 -7.753328878187101E-003  7.855256062515055E-003 -5.748263861335430E-003
 -7.660101198067341E-003  7.890359416370330E-003 -5.642105712512754E-003
 -7.417848516245293E-003  7.101362166012514E-003 -6.967442598379908E-003
  7.745804994204265E-003 -7.779268182908903E-003  5.775668956440450E-003
  7.112209317997082E-003 -7.499315976377736E-003  6.951841499000513E-003
  7.932441980306933E-003 -7.921968124273523E-003  5.769009961709703E-003
  7.766028309755717E-003 -8.010858712478473E-003  5.817688785053599E-003
  6.288564117562540E-003 -8.532549800935879E-003  6.803316925419186E-003
  7.853659637091321E-003 -7.965081732024896E-003  5.679848197904134E-003
  8.383061214676187E-003 -7.609118821580263E-003  5.386246169409089E-003
  7.738003078625297E-003 -7.980063524416487E-003  5.865486807273793E-003
  0.000000000000000E+000  0.000000000000000E+000  0.000000000000000E+000
  0.000000000000000E+000  0.000000000000000E+000  0.000000000000000E+000
  0.000000000000000E+000  0.000000000000000E+000  0.000000000000000E+000
  0.000000000000000E+000  0.000000000000000E+000  0.000000000000000E+000
  0.000000000000000E+000  0.000000000000000E+000  0.000000000000000E+000
  0.000000000000000E+000  0.000000000000000E+000  0.000000000000000E+000
  0.000000000000000E+000  0.000000000000000E+000  0.000000000000000E+000
  0.000000000000000E+000  0.000000000000000E+000  0.000000000000000E+000
  0.000000000000000E+000  0.000000000000000E+000  0.000000000000000E+000
  0.000000000000000E+000  0.000000000000000E+000  0.000000000000000E+000
  0.000000000000000E+000  0.000000000000000E+000  0.000000000000000E+000
  0.000000000000000E+000  0.000000000000000E+000  0.000000000000000E+000
  0.000000000000000E+000  0.000000000000000E+000  0.000000000000000E+000
  0.000000000000000E+000  0.000000000000000E+000  0.000000000000000E+000
  0.000000000000000E+000  0.000000000000000E+000  0.000000000000000E+000
  0.000000000000000E+000  0.000000000000000E+000  0.000000000000000E+000
 trial delta lambda:
 -6.512991902705110E-003  7.920102969625517E-003 -5.775844762959538E-003
 -7.695287072282076E-003  7.933895102674901E-003 -5.933458189910967E-003
 -7.741204217973493E-003  7.873874338574154E-003 -5.877226954228988E-003
 -7.727654899125325E-003  7.823758724398342E-003 -5.756773922470946E-003
 -7.349868992992233E-003  8.741245511280813E-003 -5.102373351282045E-003
 -7.753328878187101E-003  7.855256062515055E-003 -5.748263861335430E-003
 -7.660101198067341E-003  7.890359416370330E-003 -5.642105712512754E-003
 -7.417848516245293E-003  7.101362166012514E-003 -6.967442598379908E-003
  7.745804994204265E-003 -7.779268182908903E-003  5.775668956440450E-003
  7.112209317997082E-003 -7.499315976377736E-003  6.951841499000513E-003
  7.932441980306933E-003 -7.921968124273523E-003  5.769009961709703E-003
  7.766028309755717E-003 -8.010858712478473E-003  5.817688785053599E-003
  6.288564117562540E-003 -8.532549800935879E-003  6.803316925419186E-003
  7.853659637091321E-003 -7.965081732024896E-003  5.679848197904134E-003
  8.383061214676187E-003 -7.609118821580263E-003  5.386246169409089E-003
  7.738003078625297E-003 -7.980063524416487E-003  5.865486807273793E-003
  0.000000000000000E+000  0.000000000000000E+000  0.000000000000000E+000
  0.000000000000000E+000  0.000000000000000E+000  0.000000000000000E+000
  0.000000000000000E+000  0.000000000000000E+000  0.000000000000000E+000
  0.000000000000000E+000  0.000000000000000E+000  0.000000000000000E+000
  0.000000000000000E+000  0.000000000000000E+000  0.000000000000000E+000
  0.000000000000000E+000  0.000000000000000E+000  0.000000000000000E+000
  0.000000000000000E+000  0.000000000000000E+000  0.000000000000000E+000
  0.000000000000000E+000  0.000000000000000E+000  0.000000000000000E+000
  0.000000000000000E+000  0.000000000000000E+000  0.000000000000000E+000
  0.000000000000000E+000  0.000000000000000E+000  0.000000000000000E+000
  0.000000000000000E+000  0.000000000000000E+000  0.000000000000000E+000
  0.000000000000000E+000  0.000000000000000E+000  0.000000000000000E+000
  0.000000000000000E+000  0.000000000000000E+000  0.000000000000000E+000
  0.000000000000000E+000  0.000000000000000E+000  0.000000000000000E+000
  0.000000000000000E+000  0.000000000000000E+000  0.000000000000000E+000
  0.000000000000000E+000  0.000000000000000E+000  0.000000000000000E+000
       N       E                     dE             d eps       ncg     rms          rms(c)
DIA:   1     0.364978603639E+04    0.36498E+04    0.00000E+00     0   0.000E+00
 current spin(trial):
  0.140517290540464      -1.299779527436745E-002  1.140764278951389E-002
  2.230159580792480E-002 -1.161836388857906E-002 -4.354018570725270E-003
  1.770845659422936E-002 -1.761897772592080E-002  1.268135413329190E-003
  1.906013691715017E-002 -2.262931428472577E-002  1.331464600961269E-002
  1.480580438599665E-002 -1.630292998761785E-002  6.382299208184866E-003
  1.649738606778964E-002 -1.948321105872106E-002  1.416770528193220E-002
  2.582003944382417E-002 -1.597283265207044E-002  2.478378307631691E-002
  2.289884201540367E-002 -1.888281527341854E-002  1.440541423087951E-002
 -1.724947753707584E-002  2.708302440387068E-002 -1.142721337155859E-002
 -1.855689763078733E-002  1.052127435590557E-002 -1.971581107379082E-002
  1.416068167247351E-003  1.281172436444778E-002 -1.209162421451643E-002
 -1.522440819702344E-002  3.920341198656327E-003 -7.223019944663048E-003
 -1.244636716365916E-002 -5.466399527135197E-003 -2.103609715861741E-002
 -6.461559901889954E-003  8.497036813436953E-003 -2.100871702923902E-002
 -1.297371679230140E-002  8.047421502957256E-003 -1.450249604078990E-002
 -1.802652371684537E-002  6.999738637710708E-003 -2.442995617882883E-003
  7.637508544311236E-004 -5.531303430151688E-003  1.528818089914190E-003
  1.151486975793662E-002  1.013292948270201E-003 -2.204629665515481E-003
  9.126361124253139E-003  2.995859843667961E-003  5.510554951179428E-003
  4.968499853753991E-003 -9.869209962649429E-003 -8.303642732977772E-003
  1.708757500133319E-003  3.302436524392191E-003 -1.167207769751548E-002
 -1.033422345579074E-003 -4.953808244572875E-003 -5.040118397756851E-003
 -5.664187212963117E-003  5.809027382013378E-004  3.498087672115545E-003
  3.575463846105746E-003  2.242193904711730E-003 -3.540264878809635E-003
  5.600098750533421E-004 -7.401174982429913E-005 -7.764120169676685E-003
 -4.045842405887656E-003 -2.503731305799419E-003 -1.447351255377268E-003
 -1.579681122373731E-003  5.172877575166301E-003 -1.538336223320053E-003
  2.741808413396689E-003  3.218271380210255E-003 -4.662818161328678E-003
  3.940617412058976E-003  7.547296159842299E-003 -8.583323356498043E-003
  1.387822689977523E-002 -3.453115328151323E-003 -2.442956454213040E-003
  1.151688029572799E-002  8.750810239210656E-004  6.138001482750722E-004
  1.122339903939650E-003 -9.354382400183455E-004 -7.355978364861722E-003
 cosine between target and trial:  -0.9988260    
 alpha_opt before restrict =   -84.4732333731097     
 boundary before =    73.8401272046072     
 restriction needed: true
 alpha_opt after restrict =   -3.43200519437238     
 boundary after =    3.00000000000000     
 delta delta lambda:
   2.24177519600162       -2.72610355614151        1.98804876759952     
   2.64872180749815       -2.73085081550126        2.04229939102649     
   2.66452651289621       -2.71019163732076        2.02294457049615     
   2.65986283031065       -2.69294181688953        1.98148457439725     
   2.52982872518358       -3.00874124551128        1.75623955787400     
   2.66869982723974       -2.70378321703019        1.97855540693396     
   2.63661081131659       -2.71586580966117        1.94201571696670     
   2.55322731239837       -2.44429254625346        2.39819736151150     
  -2.66611010246466        2.67762814939882       -1.98798825490433     
  -2.44802614160096        2.58126845449319       -2.39282745500132     
  -2.73035065002740        2.72674554334019       -1.98569622545908     
  -2.67307097818221        2.75734172997341       -2.00245150173964     
  -2.16452703577940        2.93690807360623       -2.34170521962544     
  -2.70323372657010        2.74158526952302       -1.95500670004326     
  -2.88545402456571        2.61906265084759       -1.85394872932744     
  -2.66342467906977        2.74674201024631       -2.01890360581591     
  0.000000000000000E+000  0.000000000000000E+000  0.000000000000000E+000
  0.000000000000000E+000  0.000000000000000E+000  0.000000000000000E+000
  0.000000000000000E+000  0.000000000000000E+000  0.000000000000000E+000
  0.000000000000000E+000  0.000000000000000E+000  0.000000000000000E+000
  0.000000000000000E+000  0.000000000000000E+000  0.000000000000000E+000
  0.000000000000000E+000  0.000000000000000E+000  0.000000000000000E+000
  0.000000000000000E+000  0.000000000000000E+000  0.000000000000000E+000
  0.000000000000000E+000  0.000000000000000E+000  0.000000000000000E+000
  0.000000000000000E+000  0.000000000000000E+000  0.000000000000000E+000
  0.000000000000000E+000  0.000000000000000E+000  0.000000000000000E+000
  0.000000000000000E+000  0.000000000000000E+000  0.000000000000000E+000
  0.000000000000000E+000  0.000000000000000E+000  0.000000000000000E+000
  0.000000000000000E+000  0.000000000000000E+000  0.000000000000000E+000
  0.000000000000000E+000  0.000000000000000E+000  0.000000000000000E+000
  0.000000000000000E+000  0.000000000000000E+000  0.000000000000000E+000
  0.000000000000000E+000  0.000000000000000E+000  0.000000000000000E+000
 optimal delta lambda: 
   2.23526220409892       -2.71818345317189        1.98227292283656     
   2.64102652042587       -2.72291692039858        2.03636593283658     
   2.65678530867824       -2.70231776298219        2.01706734354192     
   2.65213517541153       -2.68511805816513        1.97572780047477     
   2.52247885619058       -3.00000000000000        1.75113718452272     
   2.66094649836155       -2.69592796096768        1.97280714307262     
   2.62895071011852       -2.70797545024480        1.93637361125418     
   2.54580946388213       -2.43719118408744        2.39122991891312     
  -2.65836429747046        2.66984888121591       -1.98221258594789     
  -2.44091393228296        2.57376913851682       -2.38587561350232     
  -2.72241820804709        2.71882357521591       -1.97992721549737     
  -2.66530494987246        2.74933087126094       -1.99663381295459     
  -2.15823847166184        2.92837552380529       -2.33490190270002     
  -2.69538006693301        2.73362018779100       -1.94932685184536     
  -2.87707096335103        2.61145353202601       -1.84856248315803     
  -2.65568667599115        2.73876194672189       -2.01303811900863     
  0.000000000000000E+000  0.000000000000000E+000  0.000000000000000E+000
  0.000000000000000E+000  0.000000000000000E+000  0.000000000000000E+000
  0.000000000000000E+000  0.000000000000000E+000  0.000000000000000E+000
  0.000000000000000E+000  0.000000000000000E+000  0.000000000000000E+000
  0.000000000000000E+000  0.000000000000000E+000  0.000000000000000E+000
  0.000000000000000E+000  0.000000000000000E+000  0.000000000000000E+000
  0.000000000000000E+000  0.000000000000000E+000  0.000000000000000E+000
  0.000000000000000E+000  0.000000000000000E+000  0.000000000000000E+000
  0.000000000000000E+000  0.000000000000000E+000  0.000000000000000E+000
  0.000000000000000E+000  0.000000000000000E+000  0.000000000000000E+000
  0.000000000000000E+000  0.000000000000000E+000  0.000000000000000E+000
  0.000000000000000E+000  0.000000000000000E+000  0.000000000000000E+000
  0.000000000000000E+000  0.000000000000000E+000  0.000000000000000E+000
  0.000000000000000E+000  0.000000000000000E+000  0.000000000000000E+000
  0.000000000000000E+000  0.000000000000000E+000  0.000000000000000E+000
  0.000000000000000E+000  0.000000000000000E+000  0.000000000000000E+000
       N       E                     dE             d eps       ncg     rms          rms(c)
DIA:   1     0.364802149569E+04    0.36480E+04    0.00000E+00     0   0.000E+00
 diagonal gradient:
  1.681281019470080E-002  1.201199645547052E-002  1.208179166587001E-002
  1.216547770953238E-002  1.208831447848752E-002  1.194193798684340E-002
  1.222693615063913E-002  1.237842319114932E-002  1.222943098893985E-002
  1.269022722854478E-002  1.256744844732191E-002  1.226675030872305E-002
  1.234763868486793E-002  1.221303017858811E-002  1.241030305999411E-002
  1.210800449632884E-002  1.208882849840992E-002  1.201329703931164E-002
  1.224236587909913E-002  1.204555785233841E-002  1.217224336412551E-002
  1.217978014475949E-002  1.188555435654469E-002  1.197890679043191E-002
  1.216285561463317E-002  1.207711501633347E-002  1.186126917268431E-002
  1.204792145652395E-002  1.210060626390954E-002  1.197613737277147E-002
  1.210417385579982E-002  1.205509791734353E-002  1.216413226145539E-002
  1.246360161952705E-002  1.219943129189403E-002  1.213599429130540E-002
  1.276612940235018E-002  1.241735028941568E-002  1.259316338881564E-002
  1.222652710817193E-002  1.239095583224071E-002  1.211503031853338E-002
  1.242054850600248E-002  1.234513727977508E-002  1.211406221889309E-002
  1.242674311551730E-002  1.226557357829196E-002  1.214789420949901E-002
  0.000000000000000E+000  0.000000000000000E+000  0.000000000000000E+000
  0.000000000000000E+000  0.000000000000000E+000  0.000000000000000E+000
  0.000000000000000E+000  0.000000000000000E+000  0.000000000000000E+000
  0.000000000000000E+000  0.000000000000000E+000  0.000000000000000E+000
  0.000000000000000E+000  0.000000000000000E+000  0.000000000000000E+000
  0.000000000000000E+000  0.000000000000000E+000  0.000000000000000E+000
  0.000000000000000E+000  0.000000000000000E+000  0.000000000000000E+000
  0.000000000000000E+000  0.000000000000000E+000  0.000000000000000E+000
  0.000000000000000E+000  0.000000000000000E+000  0.000000000000000E+000
  0.000000000000000E+000  0.000000000000000E+000  0.000000000000000E+000
  0.000000000000000E+000  0.000000000000000E+000  0.000000000000000E+000
  0.000000000000000E+000  0.000000000000000E+000  0.000000000000000E+000
  0.000000000000000E+000  0.000000000000000E+000  0.000000000000000E+000
  0.000000000000000E+000  0.000000000000000E+000  0.000000000000000E+000
  0.000000000000000E+000  0.000000000000000E+000  0.000000000000000E+000
  0.000000000000000E+000  0.000000000000000E+000  0.000000000000000E+000
 maximum gradient appears at: 
 ( 1 , 1 ) ( 1 , 1 ) 
 maximum gradient: 
 0.16812810E-01 0.00000000E+00 
 current spin:
  0.178201848902393      -4.574051304226760E-002  3.542493218265282E-002
  5.452064203631721E-002 -4.462596576508280E-002  2.003233669735823E-002
  5.028392253781558E-002 -5.116299900973816E-002  2.600489045499146E-002
  5.281070810425623E-002 -5.646921033112939E-002  3.761836735933213E-002
  4.603975820723701E-002 -5.304453940768311E-002  2.817480803134719E-002
  4.880586434794194E-002 -5.216500451270067E-002  3.793353207746419E-002
  5.809445666465432E-002 -4.868313331160303E-002  4.841943958878118E-002
  5.399254793600299E-002 -4.793115169451139E-002  4.313006047516155E-002
 -4.967280170080240E-002  5.941725372378358E-002 -3.500466139536564E-002
 -4.804700753857193E-002  4.175256932162003E-002 -4.836942420159786E-002
 -3.162842526770362E-002  4.567887199185747E-002 -3.624310034639484E-002
 -4.853646811419202E-002  3.755440181478359E-002 -3.152225805048440E-002
 -4.007593985411141E-002  3.099768456445373E-002 -5.052210861563921E-002
 -3.950917374605054E-002  4.246399380655019E-002 -4.469133412042437E-002
 -4.880867798789408E-002  4.037687019458828E-002 -3.695898399557901E-002
 -5.112122825531431E-002  4.068613372929492E-002 -2.696549338202658E-002
  7.532956361828945E-004 -5.528268150969193E-003  1.530331374735456E-003
  1.174878358636780E-002  1.198043327066683E-003 -2.016632290422697E-003
  9.155433256272173E-003  2.700117594757069E-003  5.474064233160646E-003
  4.593289163181202E-003 -9.923388024319749E-003 -8.310579848798157E-003
  1.701587054656980E-003  3.300409579561225E-003 -1.169502530207558E-002
 -1.066622940851753E-003 -4.786082815915858E-003 -4.966461111345442E-003
 -5.683875814799365E-003  5.304632744960428E-004  3.629776249968832E-003
  3.724087240218485E-003  2.326992411986734E-003 -3.380382755995774E-003
  7.485798340806755E-004 -1.590518852628295E-004 -7.682429447259350E-003
 -3.862178092072658E-003 -2.330455295047144E-003 -1.534381589951620E-003
 -1.496580133101472E-003  5.136954526365859E-003 -1.533458244025665E-003
  2.594456518337494E-003  3.052864146676952E-003 -4.510488132988721E-003
  4.003367743887340E-003  7.601333855250231E-003 -8.749903454623089E-003
  1.395560009179479E-002 -3.473919880439934E-003 -2.259609047419056E-003
  1.136661081874737E-002  9.739108234459413E-004  6.914732432736234E-004
  1.198341628974305E-003 -6.567453218951060E-004 -7.274990898298160E-003
 target spin: 
  0.791920000000000      -0.805100000000000       0.589060000000000     
  0.791920000000000      -0.805100000000000       0.589060000000000     
  0.791920000000000      -0.805100000000000       0.589060000000000     
  0.791920000000000      -0.805100000000000       0.589060000000000     
  0.749880000000000      -0.890530000000000       0.516680000000000     
  0.791920000000000      -0.805100000000000       0.589060000000000     
  0.791920000000000      -0.805100000000000       0.589060000000000     
  0.764770000000000      -0.729100000000000       0.711230000000000     
 -0.791920000000000       0.805100000000000      -0.589060000000000     
 -0.729860000000000       0.760540000000000      -0.714980000000000     
 -0.791920000000000       0.805100000000000      -0.589060000000000     
 -0.791920000000000       0.805100000000000      -0.589060000000000     
 -0.641380000000000       0.847890000000000      -0.701450000000000     
 -0.791920000000000       0.805100000000000      -0.589060000000000     
 -0.851380000000000       0.769050000000000      -0.553190000000000     
 -0.791920000000000       0.805100000000000      -0.589060000000000     
  0.000000000000000E+000  0.000000000000000E+000  0.000000000000000E+000
  0.000000000000000E+000  0.000000000000000E+000  0.000000000000000E+000
  0.000000000000000E+000  0.000000000000000E+000  0.000000000000000E+000
  0.000000000000000E+000  0.000000000000000E+000  0.000000000000000E+000
  0.000000000000000E+000  0.000000000000000E+000  0.000000000000000E+000
  0.000000000000000E+000  0.000000000000000E+000  0.000000000000000E+000
  0.000000000000000E+000  0.000000000000000E+000  0.000000000000000E+000
  0.000000000000000E+000  0.000000000000000E+000  0.000000000000000E+000
  0.000000000000000E+000  0.000000000000000E+000  0.000000000000000E+000
  0.000000000000000E+000  0.000000000000000E+000  0.000000000000000E+000
  0.000000000000000E+000  0.000000000000000E+000  0.000000000000000E+000
  0.000000000000000E+000  0.000000000000000E+000  0.000000000000000E+000
  0.000000000000000E+000  0.000000000000000E+000  0.000000000000000E+000
  0.000000000000000E+000  0.000000000000000E+000  0.000000000000000E+000
  0.000000000000000E+000  0.000000000000000E+000  0.000000000000000E+000
  0.000000000000000E+000  0.000000000000000E+000  0.000000000000000E+000
Step (Outer -- Inner) =  1 -- 2       RMS =  6.887315684954E-01
 -------------------------------------------------------------------------------
 restriction of this step =    3.00000000000000     
 alpha_trial before restrict =   1.624504779289256E-002
 boundary before =   2.663172776825460E-002
 trial need restriction: false
 delta delta lambda:
 -1.967593789464366E-002  2.413885096650313E-002 -1.760134377257649E-002
 -2.344707327911619E-002  2.417751071695052E-002 -1.808628234997521E-002
 -2.358432751688771E-002  2.398186970131800E-002 -1.790545871663340E-002
 -2.352308774444734E-002  2.382098470433183E-002 -1.753729078531994E-002
 -2.238714077403656E-002  2.663172776825460E-002 -1.553965771208862E-002
 -2.362640754990984E-002  2.393784598512852E-002 -1.751948870801292E-002
 -2.333658035697129E-002  2.404672230503820E-002 -1.719094130054043E-002
 -2.260114331219811E-002  2.164850289475462E-002 -2.123662275112911E-002
  2.360111156103561E-002 -2.370679108395661E-002  1.760790909401992E-002
  2.167513213387243E-002 -2.285267356836769E-002  2.118917825775234E-002
  2.417238112215691E-002 -2.414263189536432E-002  1.757786695456672E-002
  2.364970937096822E-002 -2.440708446999129E-002  1.772710141055388E-002
  1.913981443992635E-002 -2.598618008308052E-002  2.071307193467885E-002
  2.392695174048652E-002 -2.425910826918217E-002  1.730775070243796E-002
  2.553075786482326E-002 -2.317690211047251E-002  1.641310961112406E-002
  2.356595491267179E-002 -2.431031647057475E-002  1.787235779416274E-002
  0.000000000000000E+000  0.000000000000000E+000  0.000000000000000E+000
  0.000000000000000E+000  0.000000000000000E+000  0.000000000000000E+000
  0.000000000000000E+000  0.000000000000000E+000  0.000000000000000E+000
  0.000000000000000E+000  0.000000000000000E+000  0.000000000000000E+000
  0.000000000000000E+000  0.000000000000000E+000  0.000000000000000E+000
  0.000000000000000E+000  0.000000000000000E+000  0.000000000000000E+000
  0.000000000000000E+000  0.000000000000000E+000  0.000000000000000E+000
  0.000000000000000E+000  0.000000000000000E+000  0.000000000000000E+000
  0.000000000000000E+000  0.000000000000000E+000  0.000000000000000E+000
  0.000000000000000E+000  0.000000000000000E+000  0.000000000000000E+000
  0.000000000000000E+000  0.000000000000000E+000  0.000000000000000E+000
  0.000000000000000E+000  0.000000000000000E+000  0.000000000000000E+000
  0.000000000000000E+000  0.000000000000000E+000  0.000000000000000E+000
  0.000000000000000E+000  0.000000000000000E+000  0.000000000000000E+000
  0.000000000000000E+000  0.000000000000000E+000  0.000000000000000E+000
  0.000000000000000E+000  0.000000000000000E+000  0.000000000000000E+000
 trial delta lambda:
   2.21558626620427       -2.69404460220538        1.96467157906399     
   2.61757944714675       -2.69873940968163        2.01827965048660     
   2.63320098116135       -2.67833589328087        1.99916188482529     
   2.62861208766708       -2.66129707346080        1.95819050968945     
   2.50009171541655       -2.97336827223174        1.73559752681063     
   2.63732009081164       -2.67199011498255        1.95528765436461     
   2.60561412976155       -2.68392872793976        1.91918266995364     
   2.52320832056993       -2.41554268119269        2.36999329616199     
  -2.63476318590942        2.64614209013196       -1.96460467685387     
  -2.41923880014909        2.55091646494845       -2.36468643524457     
  -2.69824582692494        2.69468094332055       -1.96234934854280     
  -2.64165524050149        2.72492378679094       -1.97890671154404     
  -2.13909865722191        2.90238934372221       -2.31418883076534     
  -2.67145311519252        2.70936107952182       -1.93201910114292     
  -2.85154020548621        2.58827662991554       -1.83214937354691     
  -2.63212072107848        2.71445163025132       -1.99516576121447     
  0.000000000000000E+000  0.000000000000000E+000  0.000000000000000E+000
  0.000000000000000E+000  0.000000000000000E+000  0.000000000000000E+000
  0.000000000000000E+000  0.000000000000000E+000  0.000000000000000E+000
  0.000000000000000E+000  0.000000000000000E+000  0.000000000000000E+000
  0.000000000000000E+000  0.000000000000000E+000  0.000000000000000E+000
  0.000000000000000E+000  0.000000000000000E+000  0.000000000000000E+000
  0.000000000000000E+000  0.000000000000000E+000  0.000000000000000E+000
  0.000000000000000E+000  0.000000000000000E+000  0.000000000000000E+000
  0.000000000000000E+000  0.000000000000000E+000  0.000000000000000E+000
  0.000000000000000E+000  0.000000000000000E+000  0.000000000000000E+000
  0.000000000000000E+000  0.000000000000000E+000  0.000000000000000E+000
  0.000000000000000E+000  0.000000000000000E+000  0.000000000000000E+000
  0.000000000000000E+000  0.000000000000000E+000  0.000000000000000E+000
  0.000000000000000E+000  0.000000000000000E+000  0.000000000000000E+000
  0.000000000000000E+000  0.000000000000000E+000  0.000000000000000E+000
  0.000000000000000E+000  0.000000000000000E+000  0.000000000000000E+000
       N       E                     dE             d eps       ncg     rms          rms(c)
DIA:   1     0.364805326693E+04    0.36481E+04    0.00000E+00     0   0.000E+00
 current spin(trial):
  0.177848871198381      -4.543617728502700E-002  3.520352169697108E-002
  5.421812219126548E-002 -4.431636036631509E-002  1.980431631906836E-002
  4.997856588703296E-002 -5.084885040935923E-002  2.577356416113160E-002
  5.249575703789744E-002 -5.615370807205457E-002  3.739121898811019E-002
  4.574787619296119E-002 -5.269993339171112E-002  2.796906101456662E-002
  4.850180953975242E-002 -5.185910158632484E-002  3.770918628282165E-002
  5.779177276727866E-002 -4.837673512328104E-002  4.819674878535486E-002
  5.370036014455652E-002 -4.765852238595984E-002  4.286163106001706E-002
 -4.936830481920414E-002  5.911427531373604E-002 -3.478407593108988E-002
 -4.777034024228172E-002  4.145998222742399E-002 -4.810158868184940E-002
 -3.131704318028412E-002  4.536992569087922E-002 -3.601678716690885E-002
 -4.822323480474866E-002  3.723874976604465E-002 -3.129525350742152E-002
 -3.981814130236945E-002  3.065448949986741E-002 -5.024586825068209E-002
 -3.920014055016072E-002  4.214624369989614E-002 -4.447068913863562E-002
 -4.847322873237271E-002  4.007511446426085E-002 -3.674917337125255E-002
 -5.081395599410223E-002  4.037071841349774E-002 -2.673497448943991E-002
  7.529006643931776E-004 -5.528723383754265E-003  1.531074216136893E-003
  1.174606311182230E-002  1.196169323339087E-003 -2.018500549795128E-003
  9.154919012452604E-003  2.703055459081889E-003  5.474173330880458E-003
  4.597306572164873E-003 -9.923521103694899E-003 -8.311217122843708E-003
  1.700721431092431E-003  3.300794107184874E-003 -1.169527293254132E-002
 -1.066255701572051E-003 -4.788155069906350E-003 -4.966772249138004E-003
 -5.683489605200822E-003  5.311625380426588E-004  3.628494749153480E-003
  3.723182978286806E-003  2.326165517915656E-003 -3.381654407260903E-003
  7.467274297992049E-004 -1.583219414286020E-004 -7.682838086267839E-003
 -3.864239871662887E-003 -2.331410317153763E-003 -1.532846307712590E-003
 -1.497470976020712E-003  5.136910572340015E-003 -1.533332432882542E-003
  2.595685124484952E-003  3.054558253855722E-003 -4.512099345224895E-003
  4.002615101764874E-003  7.600017447148850E-003 -8.748145752141034E-003
  1.395509193592113E-002 -3.473773182907635E-003 -2.261343372987234E-003
  1.136813896962608E-002  9.736518305699421E-004  6.902855169908966E-004
  1.197367464486634E-003 -6.596105265498525E-004 -7.275422575394573E-003
 cosine between target and trial:  -0.9985937    
 alpha_opt before restrict =   -39.1405422680716     
 boundary before =    64.1660326072541     
 restriction needed: true
 alpha_opt after restrict =   -1.82996551341932     
 boundary after =    3.00000000000000     
 delta delta lambda:
   2.23612295919129       -2.74332228246098        2.00035033314429     
   2.66470341419126       -2.74771587000100        2.05546243466267     
   2.68030202778573       -2.72548173970653        2.03491226418312     
   2.67334227512220       -2.70719754723364        1.99307086539154     
   2.54424463746139       -3.02663172776825        1.76604467721129     
   2.68508432220382       -2.72047855037714        1.99104770217560     
   2.65214615967261       -2.73285208194478        1.95370908050655     
   2.56856551057405       -2.46030022122900        2.41349103477356     
  -2.68220949398470        2.69421971727293       -2.00109646611608     
  -2.46332657012764        2.59715131846610       -2.40809908235457     
  -2.74713290390552        2.74375197592103       -1.99768224931309     
  -2.68773251805291        2.77380637418692       -2.01464238585765     
  -2.17519381962632        2.95326678792142       -2.35399074527089     
  -2.71924044570851        2.75698923531329       -1.96698418773808     
  -2.90150914953977        2.63399911148658       -1.86531038213680     
  -2.67821402556050        2.76280892408472       -2.03115042405619     
  0.000000000000000E+000  0.000000000000000E+000  0.000000000000000E+000
  0.000000000000000E+000  0.000000000000000E+000  0.000000000000000E+000
  0.000000000000000E+000  0.000000000000000E+000  0.000000000000000E+000
  0.000000000000000E+000  0.000000000000000E+000  0.000000000000000E+000
  0.000000000000000E+000  0.000000000000000E+000  0.000000000000000E+000
  0.000000000000000E+000  0.000000000000000E+000  0.000000000000000E+000
  0.000000000000000E+000  0.000000000000000E+000  0.000000000000000E+000
  0.000000000000000E+000  0.000000000000000E+000  0.000000000000000E+000
  0.000000000000000E+000  0.000000000000000E+000  0.000000000000000E+000
  0.000000000000000E+000  0.000000000000000E+000  0.000000000000000E+000
  0.000000000000000E+000  0.000000000000000E+000  0.000000000000000E+000
  0.000000000000000E+000  0.000000000000000E+000  0.000000000000000E+000
  0.000000000000000E+000  0.000000000000000E+000  0.000000000000000E+000
  0.000000000000000E+000  0.000000000000000E+000  0.000000000000000E+000
  0.000000000000000E+000  0.000000000000000E+000  0.000000000000000E+000
  0.000000000000000E+000  0.000000000000000E+000  0.000000000000000E+000
 optimal delta lambda: 
   4.45170922539556       -5.43736688466637        3.96502191220828     
   5.28228286133802       -5.44645527968263        4.07374208514927     
   5.31350300894708       -5.40381763298740        4.03407414900841     
   5.30195436278929       -5.36849462069445        3.95126137508100     
   5.04433635287794       -6.00000000000000        3.50164220402192     
   5.32240441301546       -5.39246866535969        3.94633535654021     
   5.25776028943416       -5.41678080988454        3.87289175046019     
   5.09177383114399       -4.87584290242169        4.78348433093555     
  -5.31697267989412        5.34036180740489       -3.96570114296996     
  -4.88256537027673        5.14806778341455       -4.77278551759914     
  -5.44537873083045        5.43843291924158       -3.96003159785590     
  -5.32938775855440        5.49873016097787       -3.99354909740168     
  -4.31429247684824        5.85565613164364       -4.66817957603623     
  -5.39069356090104        5.46635031483511       -3.89900328888100     
  -5.75304935502597        5.22227574140212       -3.69745975568371     
  -5.31033474663898        5.47726055433604       -4.02631618527065     
  0.000000000000000E+000  0.000000000000000E+000  0.000000000000000E+000
  0.000000000000000E+000  0.000000000000000E+000  0.000000000000000E+000
  0.000000000000000E+000  0.000000000000000E+000  0.000000000000000E+000
  0.000000000000000E+000  0.000000000000000E+000  0.000000000000000E+000
  0.000000000000000E+000  0.000000000000000E+000  0.000000000000000E+000
  0.000000000000000E+000  0.000000000000000E+000  0.000000000000000E+000
  0.000000000000000E+000  0.000000000000000E+000  0.000000000000000E+000
  0.000000000000000E+000  0.000000000000000E+000  0.000000000000000E+000
  0.000000000000000E+000  0.000000000000000E+000  0.000000000000000E+000
  0.000000000000000E+000  0.000000000000000E+000  0.000000000000000E+000
  0.000000000000000E+000  0.000000000000000E+000  0.000000000000000E+000
  0.000000000000000E+000  0.000000000000000E+000  0.000000000000000E+000
  0.000000000000000E+000  0.000000000000000E+000  0.000000000000000E+000
  0.000000000000000E+000  0.000000000000000E+000  0.000000000000000E+000
  0.000000000000000E+000  0.000000000000000E+000  0.000000000000000E+000
  0.000000000000000E+000  0.000000000000000E+000  0.000000000000000E+000
       N       E                     dE             d eps       ncg     rms          rms(c)
DIA:   1     0.364239468975E+04    0.36424E+04    0.00000E+00     0   0.000E+00
 diagonal gradient:
  1.956559500537460E-002  1.358252802351825E-002  1.360011532386683E-002
  1.422861185384207E-002  1.414948915407982E-002  1.394540053167625E-002
  1.435181826600837E-002  1.433314722486001E-002  1.424106453862656E-002
  1.456226824752641E-002  1.443272883531090E-002  1.414338157145777E-002
  1.440032974543857E-002  1.416504916159989E-002  1.487801033217150E-002
  1.407121078358314E-002  1.405620684473689E-002  1.430969003759519E-002
  1.424391766151057E-002  1.400209770355060E-002  1.440994295318512E-002
  1.427090096989102E-002  1.388297727787180E-002  1.393601529549530E-002
  1.414407485487966E-002  1.404728860193815E-002  1.378761045222564E-002
  1.401470654843158E-002  1.401490500022034E-002  1.386302304789475E-002
  1.429106100005255E-002  1.410629981483554E-002  1.414047191447869E-002
  1.463833134297621E-002  1.427111343504341E-002  1.398548904287026E-002
  1.484399429602738E-002  1.463664813449084E-002  1.463722507304166E-002
  1.418082939728955E-002  1.429086264808922E-002  1.393848555304084E-002
  1.441221913203680E-002  1.432126825827663E-002  1.392570335981976E-002
  1.427747329218543E-002  1.423040027907251E-002  1.426675407442873E-002
  0.000000000000000E+000  0.000000000000000E+000  0.000000000000000E+000
  0.000000000000000E+000  0.000000000000000E+000  0.000000000000000E+000
  0.000000000000000E+000  0.000000000000000E+000  0.000000000000000E+000
  0.000000000000000E+000  0.000000000000000E+000  0.000000000000000E+000
  0.000000000000000E+000  0.000000000000000E+000  0.000000000000000E+000
  0.000000000000000E+000  0.000000000000000E+000  0.000000000000000E+000
  0.000000000000000E+000  0.000000000000000E+000  0.000000000000000E+000
  0.000000000000000E+000  0.000000000000000E+000  0.000000000000000E+000
  0.000000000000000E+000  0.000000000000000E+000  0.000000000000000E+000
  0.000000000000000E+000  0.000000000000000E+000  0.000000000000000E+000
  0.000000000000000E+000  0.000000000000000E+000  0.000000000000000E+000
  0.000000000000000E+000  0.000000000000000E+000  0.000000000000000E+000
  0.000000000000000E+000  0.000000000000000E+000  0.000000000000000E+000
  0.000000000000000E+000  0.000000000000000E+000  0.000000000000000E+000
  0.000000000000000E+000  0.000000000000000E+000  0.000000000000000E+000
  0.000000000000000E+000  0.000000000000000E+000  0.000000000000000E+000
 maximum gradient appears at: 
 ( 1 , 1 ) ( 1 , 1 ) 
 maximum gradient: 
 0.19565595E-01 0.00000000E+00 
Reach limitation of current step ( maximum gradient < 1.000E+00 in atom type 1 ), exit.
 Inner optimization for lambda ends.
 ===============================================================================
 final optimal lambda: 
   2.23526220409892       -2.71818345317189        1.98227292283656     
   2.64102652042587       -2.72291692039858        2.03636593283658     
   2.65678530867824       -2.70231776298219        2.01706734354192     
   2.65213517541153       -2.68511805816513        1.97572780047477     
   2.52247885619058       -3.00000000000000        1.75113718452272     
   2.66094649836155       -2.69592796096768        1.97280714307262     
   2.62895071011852       -2.70797545024480        1.93637361125418     
   2.54580946388213       -2.43719118408744        2.39122991891312     
  -2.65836429747046        2.66984888121591       -1.98221258594789     
  -2.44091393228296        2.57376913851682       -2.38587561350232     
  -2.72241820804709        2.71882357521591       -1.97992721549737     
  -2.66530494987246        2.74933087126094       -1.99663381295459     
  -2.15823847166184        2.92837552380529       -2.33490190270002     
  -2.69538006693301        2.73362018779100       -1.94932685184536     
  -2.87707096335103        2.61145353202601       -1.84856248315803     
  -2.65568667599115        2.73876194672189       -2.01303811900863     
  0.000000000000000E+000  0.000000000000000E+000  0.000000000000000E+000
  0.000000000000000E+000  0.000000000000000E+000  0.000000000000000E+000
  0.000000000000000E+000  0.000000000000000E+000  0.000000000000000E+000
  0.000000000000000E+000  0.000000000000000E+000  0.000000000000000E+000
  0.000000000000000E+000  0.000000000000000E+000  0.000000000000000E+000
  0.000000000000000E+000  0.000000000000000E+000  0.000000000000000E+000
  0.000000000000000E+000  0.000000000000000E+000  0.000000000000000E+000
  0.000000000000000E+000  0.000000000000000E+000  0.000000000000000E+000
  0.000000000000000E+000  0.000000000000000E+000  0.000000000000000E+000
  0.000000000000000E+000  0.000000000000000E+000  0.000000000000000E+000
  0.000000000000000E+000  0.000000000000000E+000  0.000000000000000E+000
  0.000000000000000E+000  0.000000000000000E+000  0.000000000000000E+000
  0.000000000000000E+000  0.000000000000000E+000  0.000000000000000E+000
  0.000000000000000E+000  0.000000000000000E+000  0.000000000000000E+000
  0.000000000000000E+000  0.000000000000000E+000  0.000000000000000E+000
  0.000000000000000E+000  0.000000000000000E+000  0.000000000000000E+000
    0.150E+03
DAV:   2     0.862795437692E+03   -0.27870E+04   -0.32899E+04  5016   0.711E+02
 ===============================================================================
 Inner optimization for lambda begins ...
 Covergence criterion this loop:  1.000000000000000E-006
 initial lambda:
   2.23526220409892       -2.71818345317189        1.98227292283656     
   2.64102652042587       -2.72291692039858        2.03636593283658     
   2.65678530867824       -2.70231776298219        2.01706734354192     
   2.65213517541153       -2.68511805816513        1.97572780047477     
   2.52247885619058       -3.00000000000000        1.75113718452272     
   2.66094649836155       -2.69592796096768        1.97280714307262     
   2.62895071011852       -2.70797545024480        1.93637361125418     
   2.54580946388213       -2.43719118408744        2.39122991891312     
  -2.65836429747046        2.66984888121591       -1.98221258594789     
  -2.44091393228296        2.57376913851682       -2.38587561350232     
  -2.72241820804709        2.71882357521591       -1.97992721549737     
  -2.66530494987246        2.74933087126094       -1.99663381295459     
  -2.15823847166184        2.92837552380529       -2.33490190270002     
  -2.69538006693301        2.73362018779100       -1.94932685184536     
  -2.87707096335103        2.61145353202601       -1.84856248315803     
  -2.65568667599115        2.73876194672189       -2.01303811900863     
  0.000000000000000E+000  0.000000000000000E+000  0.000000000000000E+000
  0.000000000000000E+000  0.000000000000000E+000  0.000000000000000E+000
  0.000000000000000E+000  0.000000000000000E+000  0.000000000000000E+000
  0.000000000000000E+000  0.000000000000000E+000  0.000000000000000E+000
  0.000000000000000E+000  0.000000000000000E+000  0.000000000000000E+000
  0.000000000000000E+000  0.000000000000000E+000  0.000000000000000E+000
  0.000000000000000E+000  0.000000000000000E+000  0.000000000000000E+000
  0.000000000000000E+000  0.000000000000000E+000  0.000000000000000E+000
  0.000000000000000E+000  0.000000000000000E+000  0.000000000000000E+000
  0.000000000000000E+000  0.000000000000000E+000  0.000000000000000E+000
  0.000000000000000E+000  0.000000000000000E+000  0.000000000000000E+000
  0.000000000000000E+000  0.000000000000000E+000  0.000000000000000E+000
  0.000000000000000E+000  0.000000000000000E+000  0.000000000000000E+000
  0.000000000000000E+000  0.000000000000000E+000  0.000000000000000E+000
  0.000000000000000E+000  0.000000000000000E+000  0.000000000000000E+000
  0.000000000000000E+000  0.000000000000000E+000  0.000000000000000E+000
 initial spin: 
  0.816885706172892      -0.831642665350162       0.651048507173474     
  0.643543874235667      -0.660701989470645       0.470494425782387     
  0.661251561010978      -0.661255613649803       0.482314638429710     
  0.666944894960209      -0.698135646510552       0.523711573586139     
  0.624469636683768      -0.748601138682412       0.441454353200261     
  0.665948422798297      -0.697225284812858       0.486501103751133     
  0.685958674215239      -0.730373900405147       0.529256899022917     
  0.633669436757285      -0.593740235977047       0.587101491172424     
 -0.675344338117205       0.690264971611626      -0.499857997154680     
 -0.611384680422971       0.612273581651936      -0.598341532367395     
 -0.657086320107751       0.683070137403243      -0.513698474096385     
 -0.656380079446560       0.661291406532864      -0.455951088706740     
 -0.543234839886962       0.749700320488475      -0.607405536110703     
 -0.650666171781398       0.682077540236590      -0.498853738516044     
 -0.745282866449194       0.665420326013472      -0.471371148906287     
 -0.643493712030208       0.675204983002986      -0.463282493320307     
  5.517529190416212E-003  6.515796304257175E-004 -7.149998934061820E-003
  4.831853354333572E-003  5.329471117159599E-003 -1.503312745344236E-003
  1.223427722132150E-002  4.685908814049469E-003 -1.180647708534269E-003
 -1.689481792921999E-003 -3.083871549751840E-003  2.616472761401758E-003
 -6.541856248273158E-003  3.398729421101278E-003 -4.021876121516113E-003
 -8.143188191274504E-003  8.768522579588878E-003  4.096257824771896E-003
 -8.356799581476332E-003 -2.990620674619674E-003 -7.101416601760634E-003
  7.778308507449108E-003  2.715912044209427E-003  7.168218213541543E-003
  3.217231656302698E-003 -4.753924552383549E-003 -1.054139382403493E-003
  1.774139081591100E-003 -4.922300463245298E-003 -9.500806093458228E-003
 -9.085101344002835E-003 -4.923533105259517E-003 -6.890224641693000E-003
 -7.039984463085722E-003  5.663395841450575E-004 -2.807472262015857E-003
 -1.492659032860792E-003  6.310261736897657E-005 -3.620766541617706E-004
  1.238812157098844E-002 -1.946147495819349E-003 -4.229786384619190E-003
  5.405690594542012E-003  5.541087998100578E-003 -3.085460015308903E-003
 -2.854226702891198E-003  2.773683162538660E-003  1.358967691116165E-003
 target spin: 
  0.791920000000000      -0.805100000000000       0.589060000000000     
  0.791920000000000      -0.805100000000000       0.589060000000000     
  0.791920000000000      -0.805100000000000       0.589060000000000     
  0.791920000000000      -0.805100000000000       0.589060000000000     
  0.749880000000000      -0.890530000000000       0.516680000000000     
  0.791920000000000      -0.805100000000000       0.589060000000000     
  0.791920000000000      -0.805100000000000       0.589060000000000     
  0.764770000000000      -0.729100000000000       0.711230000000000     
 -0.791920000000000       0.805100000000000      -0.589060000000000     
 -0.729860000000000       0.760540000000000      -0.714980000000000     
 -0.791920000000000       0.805100000000000      -0.589060000000000     
 -0.791920000000000       0.805100000000000      -0.589060000000000     
 -0.641380000000000       0.847890000000000      -0.701450000000000     
 -0.791920000000000       0.805100000000000      -0.589060000000000     
 -0.851380000000000       0.769050000000000      -0.553190000000000     
 -0.791920000000000       0.805100000000000      -0.589060000000000     
  0.000000000000000E+000  0.000000000000000E+000  0.000000000000000E+000
  0.000000000000000E+000  0.000000000000000E+000  0.000000000000000E+000
  0.000000000000000E+000  0.000000000000000E+000  0.000000000000000E+000
  0.000000000000000E+000  0.000000000000000E+000  0.000000000000000E+000
  0.000000000000000E+000  0.000000000000000E+000  0.000000000000000E+000
  0.000000000000000E+000  0.000000000000000E+000  0.000000000000000E+000
  0.000000000000000E+000  0.000000000000000E+000  0.000000000000000E+000
  0.000000000000000E+000  0.000000000000000E+000  0.000000000000000E+000
  0.000000000000000E+000  0.000000000000000E+000  0.000000000000000E+000
  0.000000000000000E+000  0.000000000000000E+000  0.000000000000000E+000
  0.000000000000000E+000  0.000000000000000E+000  0.000000000000000E+000
  0.000000000000000E+000  0.000000000000000E+000  0.000000000000000E+000
  0.000000000000000E+000  0.000000000000000E+000  0.000000000000000E+000
  0.000000000000000E+000  0.000000000000000E+000  0.000000000000000E+000
  0.000000000000000E+000  0.000000000000000E+000  0.000000000000000E+000
  0.000000000000000E+000  0.000000000000000E+000  0.000000000000000E+000
Step (Outer -- Inner) =  2 -- 1       RMS =  1.143896259155E-01
 -------------------------------------------------------------------------------
 restriction of this step =    3.00000000000000     
 alpha_trial before restrict =   1.000000000000000E-002
 boundary before =   1.484262879697922E-003
 trial need restriction: false
 delta delta lambda:
  2.496570617289174E-004 -2.654266535016181E-004  6.198850717347393E-004
 -1.483761257643330E-003  1.443980105293546E-003 -1.185655742176128E-003
 -1.306684389890219E-003  1.438443863501968E-003 -1.067453615702896E-003
 -1.249751050397914E-003  1.069643534894477E-003 -6.534842641386119E-004
 -1.254103633162317E-003  1.419288613175880E-003 -7.522564679973859E-004
 -1.259715772017029E-003  1.078747151871418E-003 -1.025588962488674E-003
 -1.059613257847614E-003  7.472609959485277E-004 -5.980310097708286E-004
 -1.311005632427151E-003  1.353597640229532E-003 -1.241285088275759E-003
  1.165756618827951E-003 -1.148350283883740E-003  8.920200284531993E-004
  1.184753195770294E-003 -1.482664183480638E-003  1.166384676326045E-003
  1.348336798922486E-003 -1.220298625967569E-003  7.536152590361501E-004
  1.355399205534400E-003 -1.438085934671362E-003  1.331089112932597E-003
  9.814516011303787E-004 -9.818967951152491E-004  9.404446388929688E-004
  1.412538282186016E-003 -1.230224597634104E-003  9.020626148395594E-004
  1.060971335508057E-003 -1.036296739865277E-003  8.181885109371289E-004
  1.484262879697922E-003 -1.298950169970138E-003  1.257775066796926E-003
  0.000000000000000E+000  0.000000000000000E+000  0.000000000000000E+000
  0.000000000000000E+000  0.000000000000000E+000  0.000000000000000E+000
  0.000000000000000E+000  0.000000000000000E+000  0.000000000000000E+000
  0.000000000000000E+000  0.000000000000000E+000  0.000000000000000E+000
  0.000000000000000E+000  0.000000000000000E+000  0.000000000000000E+000
  0.000000000000000E+000  0.000000000000000E+000  0.000000000000000E+000
  0.000000000000000E+000  0.000000000000000E+000  0.000000000000000E+000
  0.000000000000000E+000  0.000000000000000E+000  0.000000000000000E+000
  0.000000000000000E+000  0.000000000000000E+000  0.000000000000000E+000
  0.000000000000000E+000  0.000000000000000E+000  0.000000000000000E+000
  0.000000000000000E+000  0.000000000000000E+000  0.000000000000000E+000
  0.000000000000000E+000  0.000000000000000E+000  0.000000000000000E+000
  0.000000000000000E+000  0.000000000000000E+000  0.000000000000000E+000
  0.000000000000000E+000  0.000000000000000E+000  0.000000000000000E+000
  0.000000000000000E+000  0.000000000000000E+000  0.000000000000000E+000
  0.000000000000000E+000  0.000000000000000E+000  0.000000000000000E+000
 trial delta lambda:
  2.496570617289174E-004 -2.654266535016181E-004  6.198850717347393E-004
 -1.483761257643330E-003  1.443980105293546E-003 -1.185655742176128E-003
 -1.306684389890219E-003  1.438443863501968E-003 -1.067453615702896E-003
 -1.249751050397914E-003  1.069643534894477E-003 -6.534842641386119E-004
 -1.254103633162317E-003  1.419288613175880E-003 -7.522564679973859E-004
 -1.259715772017029E-003  1.078747151871418E-003 -1.025588962488674E-003
 -1.059613257847614E-003  7.472609959485277E-004 -5.980310097708286E-004
 -1.311005632427151E-003  1.353597640229532E-003 -1.241285088275759E-003
  1.165756618827951E-003 -1.148350283883740E-003  8.920200284531993E-004
  1.184753195770294E-003 -1.482664183480638E-003  1.166384676326045E-003
  1.348336798922486E-003 -1.220298625967569E-003  7.536152590361501E-004
  1.355399205534400E-003 -1.438085934671362E-003  1.331089112932597E-003
  9.814516011303787E-004 -9.818967951152491E-004  9.404446388929688E-004
  1.412538282186016E-003 -1.230224597634104E-003  9.020626148395594E-004
  1.060971335508057E-003 -1.036296739865277E-003  8.181885109371289E-004
  1.484262879697922E-003 -1.298950169970138E-003  1.257775066796926E-003
  0.000000000000000E+000  0.000000000000000E+000  0.000000000000000E+000
  0.000000000000000E+000  0.000000000000000E+000  0.000000000000000E+000
  0.000000000000000E+000  0.000000000000000E+000  0.000000000000000E+000
  0.000000000000000E+000  0.000000000000000E+000  0.000000000000000E+000
  0.000000000000000E+000  0.000000000000000E+000  0.000000000000000E+000
  0.000000000000000E+000  0.000000000000000E+000  0.000000000000000E+000
  0.000000000000000E+000  0.000000000000000E+000  0.000000000000000E+000
  0.000000000000000E+000  0.000000000000000E+000  0.000000000000000E+000
  0.000000000000000E+000  0.000000000000000E+000  0.000000000000000E+000
  0.000000000000000E+000  0.000000000000000E+000  0.000000000000000E+000
  0.000000000000000E+000  0.000000000000000E+000  0.000000000000000E+000
  0.000000000000000E+000  0.000000000000000E+000  0.000000000000000E+000
  0.000000000000000E+000  0.000000000000000E+000  0.000000000000000E+000
  0.000000000000000E+000  0.000000000000000E+000  0.000000000000000E+000
  0.000000000000000E+000  0.000000000000000E+000  0.000000000000000E+000
  0.000000000000000E+000  0.000000000000000E+000  0.000000000000000E+000
       N       E                     dE             d eps       ncg     rms          rms(c)
DIA:   1     0.847877376671E+03    0.84788E+03    0.00000E+00     0   0.000E+00
 current spin(trial):
  0.817150413756091      -0.831919594640242       0.651384300610747     
  0.643265592844008      -0.660431470201167       0.470257937884846     
  0.661007821943927      -0.660987738244780       0.482109916794319     
  0.666745185870967      -0.697981746359807       0.523638308943149     
  0.624258508187597      -0.748365778747405       0.441332887138201     
  0.665755949465807      -0.697073472309991       0.486337393028930     
  0.685818489593552      -0.730322298204517       0.529200012196563     
  0.633418765473476      -0.593490819395607       0.586885781232821     
 -0.675163072188203       0.690073938908167      -0.499702161761437     
 -0.611174088908210       0.611997590254838      -0.598129400913022     
 -0.656854028930934       0.682874180862927      -0.513586023776250     
 -0.656120841418947       0.661019244284634      -0.455680576154254     
 -0.543081397121631       0.749576048920012      -0.607269663712412     
 -0.650416289843177       0.681885509211631      -0.498705644998903     
 -0.745151125807932       0.665273900783406      -0.471255106162622     
 -0.643202364801826       0.674965452406889      -0.463030885370040     
  5.517133906290673E-003  6.515180411902756E-004 -7.150079814118389E-003
  4.831943981503414E-003  5.328915333248457E-003 -1.502947208038337E-003
  1.223465933620155E-002  4.685452239692228E-003 -1.180290146484360E-003
 -1.689680712245420E-003 -3.084175974648442E-003  2.615739655029533E-003
 -6.541571186901731E-003  3.398375464012347E-003 -4.022419797451350E-003
 -8.142814641984058E-003  8.768575474880191E-003  4.096494106912877E-003
 -8.357042179434010E-003 -2.990976769335386E-003 -7.101640577726521E-003
  7.778797584649779E-003  2.716336241183688E-003  7.168104233545569E-003
  3.217375432310442E-003 -4.754307945015713E-003 -1.054408782294305E-003
  1.773580281727395E-003 -4.922124463445656E-003 -9.500948717167780E-003
 -9.084991951950812E-003 -4.922898324130152E-003 -6.890421736139778E-003
 -7.040317494567417E-003  5.659763328163267E-004 -2.806800499098783E-003
 -1.492403659569756E-003  6.330794696512748E-005 -3.623337116113101E-004
  1.238869576956824E-002 -1.946475713346613E-003 -4.228933356154249E-003
  5.405646920064750E-003  5.540506862192425E-003 -3.085156054640435E-003
 -2.854794690470270E-003  2.773584782149279E-003  1.359016742369896E-003
 cosine between target and trial:  -0.9546496    
 alpha_opt before restrict =   -5.19377058452688     
 boundary before =   0.770892088428022     
 restriction needed: false
 delta delta lambda:
 -0.129915807404435       0.138121941184113      -0.322573970208057     
  0.772115318698496      -0.751414119656858       0.616988047451152     
  0.679968579137117      -0.748533186438473       0.555478372574158     
  0.650341775404223      -0.556617956281322       0.340058219117570     
  0.652606759619835      -0.738565233619859       0.391457008018488     
  0.655527187928678      -0.561355269705063       0.533692967481400     
  0.551398430216210      -0.388857478968121       0.311201617728034     
  0.682217254617346      -0.704381158351143       0.645936282938124     
 -0.606633000177440       0.597575142800729      -0.464186758487358     
 -0.616518383007367       0.771544426472810      -0.606959826890838     
 -0.701643537226796       0.635015409414860      -0.392164091702292     
 -0.705318651605101       0.748346928486467      -0.692668237126262     
 -0.510724897209907       0.510956565946195      -0.489385814824723     
 -0.735052516235771       0.640180657352976      -0.469412690050350     
 -0.552105142674302       0.539265049175203      -0.425766530581248     
 -0.772376351307720       0.675943868525679      -0.654517289454917     
  0.000000000000000E+000  0.000000000000000E+000  0.000000000000000E+000
  0.000000000000000E+000  0.000000000000000E+000  0.000000000000000E+000
  0.000000000000000E+000  0.000000000000000E+000  0.000000000000000E+000
  0.000000000000000E+000  0.000000000000000E+000  0.000000000000000E+000
  0.000000000000000E+000  0.000000000000000E+000  0.000000000000000E+000
  0.000000000000000E+000  0.000000000000000E+000  0.000000000000000E+000
  0.000000000000000E+000  0.000000000000000E+000  0.000000000000000E+000
  0.000000000000000E+000  0.000000000000000E+000  0.000000000000000E+000
  0.000000000000000E+000  0.000000000000000E+000  0.000000000000000E+000
  0.000000000000000E+000  0.000000000000000E+000  0.000000000000000E+000
  0.000000000000000E+000  0.000000000000000E+000  0.000000000000000E+000
  0.000000000000000E+000  0.000000000000000E+000  0.000000000000000E+000
  0.000000000000000E+000  0.000000000000000E+000  0.000000000000000E+000
  0.000000000000000E+000  0.000000000000000E+000  0.000000000000000E+000
  0.000000000000000E+000  0.000000000000000E+000  0.000000000000000E+000
  0.000000000000000E+000  0.000000000000000E+000  0.000000000000000E+000
 optimal delta lambda: 
 -0.129666150342706       0.137856514530611      -0.321954085136322     
  0.770631557440853      -0.749970139551564       0.615802391708976     
  0.678661894747227      -0.747094742574971       0.554410918958456     
  0.649092024353825      -0.555548312746428       0.339404734853431     
  0.651352655986672      -0.737145945006683       0.390704751550491     
  0.654267472156661      -0.560276522553191       0.532667378518911     
  0.550338816958363      -0.388110217972172       0.310603586718263     
  0.680906248984919      -0.703027560710914       0.644694997849848     
 -0.605467243558612       0.596426792516846      -0.463294738458905     
 -0.615333629811596       0.770061762289329      -0.605793442214512     
 -0.700295200427874       0.633795110788892      -0.391410476443256     
 -0.703963252399566       0.746908842551796      -0.691337148013330     
 -0.509743445608776       0.509974669151079      -0.488445370185830     
 -0.733639977953585       0.638950432755342      -0.468510627435510     
 -0.551044171338794       0.538228752435337      -0.424948342070311     
 -0.770892088428022       0.674644918355709      -0.653259514388120     
  0.000000000000000E+000  0.000000000000000E+000  0.000000000000000E+000
  0.000000000000000E+000  0.000000000000000E+000  0.000000000000000E+000
  0.000000000000000E+000  0.000000000000000E+000  0.000000000000000E+000
  0.000000000000000E+000  0.000000000000000E+000  0.000000000000000E+000
  0.000000000000000E+000  0.000000000000000E+000  0.000000000000000E+000
  0.000000000000000E+000  0.000000000000000E+000  0.000000000000000E+000
  0.000000000000000E+000  0.000000000000000E+000  0.000000000000000E+000
  0.000000000000000E+000  0.000000000000000E+000  0.000000000000000E+000
  0.000000000000000E+000  0.000000000000000E+000  0.000000000000000E+000
  0.000000000000000E+000  0.000000000000000E+000  0.000000000000000E+000
  0.000000000000000E+000  0.000000000000000E+000  0.000000000000000E+000
  0.000000000000000E+000  0.000000000000000E+000  0.000000000000000E+000
  0.000000000000000E+000  0.000000000000000E+000  0.000000000000000E+000
  0.000000000000000E+000  0.000000000000000E+000  0.000000000000000E+000
  0.000000000000000E+000  0.000000000000000E+000  0.000000000000000E+000
  0.000000000000000E+000  0.000000000000000E+000  0.000000000000000E+000
       N       E                     dE             d eps       ncg     rms          rms(c)
DIA:   1     0.846466404375E+03    0.84647E+03    0.00000E+00     0   0.000E+00
 diagonal gradient:
   1.09020341678962        1.04601261973854       0.515931640638202     
  0.177326049079086       0.174774178008897       0.187109719031840     
  0.171874707455118       0.172592260211641       0.177561859821887     
  0.149361732477206       0.131925633691411       0.105010971648480     
  0.155426246042077       0.151170257149339       0.147484656880024     
  0.145228263929154       0.129893221291715       0.149814689717072     
  0.113383700579964       5.346581419600290E-002  7.673954062621183E-002
  0.174588922319034       0.174847537614547       0.165081300673642     
  0.145005214086260       0.153838091075997       0.157745529766741     
  0.165865094077035       0.177471673308331       0.171667839920594     
  0.158092334513432       0.146499993307012       0.130086846119456     
  0.179887707224615       0.181075349881669       0.192014752351636     
  0.129667941766999       0.100329788731890       0.120236494809834     
  0.167819351445691       0.147672830192760       0.157398852477007     
  0.108062897155090       0.126211381015061       0.124753607751317     
  0.184460194827610       0.174502126531276       0.187731696932918     
  0.000000000000000E+000  0.000000000000000E+000  0.000000000000000E+000
  0.000000000000000E+000  0.000000000000000E+000  0.000000000000000E+000
  0.000000000000000E+000  0.000000000000000E+000  0.000000000000000E+000
  0.000000000000000E+000  0.000000000000000E+000  0.000000000000000E+000
  0.000000000000000E+000  0.000000000000000E+000  0.000000000000000E+000
  0.000000000000000E+000  0.000000000000000E+000  0.000000000000000E+000
  0.000000000000000E+000  0.000000000000000E+000  0.000000000000000E+000
  0.000000000000000E+000  0.000000000000000E+000  0.000000000000000E+000
  0.000000000000000E+000  0.000000000000000E+000  0.000000000000000E+000
  0.000000000000000E+000  0.000000000000000E+000  0.000000000000000E+000
  0.000000000000000E+000  0.000000000000000E+000  0.000000000000000E+000
  0.000000000000000E+000  0.000000000000000E+000  0.000000000000000E+000
  0.000000000000000E+000  0.000000000000000E+000  0.000000000000000E+000
  0.000000000000000E+000  0.000000000000000E+000  0.000000000000000E+000
  0.000000000000000E+000  0.000000000000000E+000  0.000000000000000E+000
  0.000000000000000E+000  0.000000000000000E+000  0.000000000000000E+000
 maximum gradient appears at: 
 ( 1 , 1 ) ( 1 , 1 ) 
 maximum gradient: 
 0.10902034E+01 0.00000000E+00 
 current spin:
  0.675523226027316      -0.687443011437974       0.484942207818920     
  0.780196923612316      -0.791777404141988       0.585717038274189     
  0.777896375631593      -0.790198383863052       0.580756872305535     
  0.763894404254833      -0.771426709715819       0.559352794575192     
  0.725706934853313      -0.860035680745665       0.499077309424081     
  0.760966551924925      -0.770001407141413       0.566302501786349     
  0.748358125854777      -0.751124529206818       0.553092475584530     
  0.752548124967858      -0.716662873842512       0.693528579955268     
 -0.763140245391639       0.782018130838998      -0.572940671111024     
 -0.713447050820434       0.748937731156185      -0.702336784030422     
 -0.767797623191946       0.775921116891833      -0.564615828515002     
 -0.783014414891101       0.796538186527643      -0.588698019974006     
 -0.609332223308270       0.800865971303019      -0.666134495327939     
 -0.773785157076200       0.776433158994460      -0.572596773647676     
 -0.804830296064490       0.733350920160350      -0.524384987687499     
 -0.785692616852704       0.792931955909577      -0.585920010493963     
  5.726289828533122E-003  5.985771180877296E-004 -7.053300220714137E-003
  4.755488508354402E-003  5.705498445079088E-003 -1.834928305590305E-003
  1.203615762837651E-002  4.944420639323262E-003 -1.372632753840555E-003
 -1.643026176796077E-003 -2.974557756187733E-003  2.860683952795056E-003
 -6.657658198656207E-003  3.547152271006376E-003 -3.825088532647153E-003
 -8.156791083039842E-003  8.667988986375193E-003  4.086155530401475E-003
 -8.313406518358808E-003 -2.993218189727590E-003 -7.055795785088768E-003
  7.582055445416379E-003  2.481655815307067E-003  7.205890870158376E-003
  3.019143531720113E-003 -4.555892874044219E-003 -9.589587552605080E-004
  1.866779016646381E-003 -5.144854698644221E-003 -9.350170053265099E-003
 -9.099694762698604E-003 -5.286098594370441E-003 -6.762475576461968E-003
 -6.911958064986826E-003  6.235483321481894E-004 -3.155942904864604E-003
 -1.596815462999323E-003 -1.250391992605180E-004 -2.177081256359895E-004
  1.207827826959157E-002 -1.922305175476623E-003 -4.756791457632277E-003
  5.415828944187023E-003  5.754599596205496E-003 -3.248007694013999E-003
 -2.429298907048182E-003  2.905925580554631E-003  1.253396054373235E-003
 target spin: 
  0.791920000000000      -0.805100000000000       0.589060000000000     
  0.791920000000000      -0.805100000000000       0.589060000000000     
  0.791920000000000      -0.805100000000000       0.589060000000000     
  0.791920000000000      -0.805100000000000       0.589060000000000     
  0.749880000000000      -0.890530000000000       0.516680000000000     
  0.791920000000000      -0.805100000000000       0.589060000000000     
  0.791920000000000      -0.805100000000000       0.589060000000000     
  0.764770000000000      -0.729100000000000       0.711230000000000     
 -0.791920000000000       0.805100000000000      -0.589060000000000     
 -0.729860000000000       0.760540000000000      -0.714980000000000     
 -0.791920000000000       0.805100000000000      -0.589060000000000     
 -0.791920000000000       0.805100000000000      -0.589060000000000     
 -0.641380000000000       0.847890000000000      -0.701450000000000     
 -0.791920000000000       0.805100000000000      -0.589060000000000     
 -0.851380000000000       0.769050000000000      -0.553190000000000     
 -0.791920000000000       0.805100000000000      -0.589060000000000     
  0.000000000000000E+000  0.000000000000000E+000  0.000000000000000E+000
  0.000000000000000E+000  0.000000000000000E+000  0.000000000000000E+000
  0.000000000000000E+000  0.000000000000000E+000  0.000000000000000E+000
  0.000000000000000E+000  0.000000000000000E+000  0.000000000000000E+000
  0.000000000000000E+000  0.000000000000000E+000  0.000000000000000E+000
  0.000000000000000E+000  0.000000000000000E+000  0.000000000000000E+000
  0.000000000000000E+000  0.000000000000000E+000  0.000000000000000E+000
  0.000000000000000E+000  0.000000000000000E+000  0.000000000000000E+000
  0.000000000000000E+000  0.000000000000000E+000  0.000000000000000E+000
  0.000000000000000E+000  0.000000000000000E+000  0.000000000000000E+000
  0.000000000000000E+000  0.000000000000000E+000  0.000000000000000E+000
  0.000000000000000E+000  0.000000000000000E+000  0.000000000000000E+000
  0.000000000000000E+000  0.000000000000000E+000  0.000000000000000E+000
  0.000000000000000E+000  0.000000000000000E+000  0.000000000000000E+000
  0.000000000000000E+000  0.000000000000000E+000  0.000000000000000E+000
  0.000000000000000E+000  0.000000000000000E+000  0.000000000000000E+000
Step (Outer -- Inner) =  2 -- 2       RMS =  3.759565166623E-02
 -------------------------------------------------------------------------------
 restriction of this step =    3.00000000000000     
 alpha_trial before restrict =   1.624504779289256E-002
 boundary before =   1.864766834865158E-003
 trial need restriction: false
 delta delta lambda:
 -1.847061806791295E-003  1.864766834865158E-003 -1.582622249283963E-003
 -4.508095573392306E-004  4.698131061535144E-004 -2.623632017206472E-004
 -4.571089551627577E-004  4.944928768048410E-004 -3.221994491938543E-004
 -6.745810945644188E-004  7.347232358579859E-004 -5.972671554870470E-004
 -6.127603338655171E-004  7.444357570438983E-004 -4.179610929080304E-004
 -7.238927861104265E-004  7.594748297995741E-004 -5.496650588735261E-004
 -8.936036592259500E-004  1.007962049904293E-003 -6.892355044208255E-004
 -4.285977345574466E-004  4.395684644052601E-004 -5.053787758563351E-004
  6.720932572403268E-004 -5.764764050720074E-004  4.183892568413006E-004
  4.745273954219339E-004 -4.486545205147623E-004  4.100646261841637E-004
  6.284727572062067E-004 -6.881480471221558E-004  5.293397153335069E-004
  3.825145465630510E-004 -3.914396708463460E-004  2.394573845646389E-004
  6.928409360088795E-004 -9.362089873916318E-004  7.387295089943941E-004
  5.424709380354355E-004 -6.815716894406869E-004  4.257381416475506E-004
  9.423794098672444E-004 -7.617806514395611E-004  6.115129751918459E-004
  3.616197816841182E-004 -4.256077785696854E-004  2.717212710867306E-004
  0.000000000000000E+000  0.000000000000000E+000  0.000000000000000E+000
  0.000000000000000E+000  0.000000000000000E+000  0.000000000000000E+000
  0.000000000000000E+000  0.000000000000000E+000  0.000000000000000E+000
  0.000000000000000E+000  0.000000000000000E+000  0.000000000000000E+000
  0.000000000000000E+000  0.000000000000000E+000  0.000000000000000E+000
  0.000000000000000E+000  0.000000000000000E+000  0.000000000000000E+000
  0.000000000000000E+000  0.000000000000000E+000  0.000000000000000E+000
  0.000000000000000E+000  0.000000000000000E+000  0.000000000000000E+000
  0.000000000000000E+000  0.000000000000000E+000  0.000000000000000E+000
  0.000000000000000E+000  0.000000000000000E+000  0.000000000000000E+000
  0.000000000000000E+000  0.000000000000000E+000  0.000000000000000E+000
  0.000000000000000E+000  0.000000000000000E+000  0.000000000000000E+000
  0.000000000000000E+000  0.000000000000000E+000  0.000000000000000E+000
  0.000000000000000E+000  0.000000000000000E+000  0.000000000000000E+000
  0.000000000000000E+000  0.000000000000000E+000  0.000000000000000E+000
  0.000000000000000E+000  0.000000000000000E+000  0.000000000000000E+000
 trial delta lambda:
 -0.131513212149497       0.139721281365476      -0.323536707385606     
  0.770180747883514      -0.749500326445411       0.615540028507255     
  0.678204785792064      -0.746600249698167       0.554088719509262     
  0.648417443259260      -0.554813589510570       0.338807467697944     
  0.650739895652807      -0.736401509249639       0.390286790457583     
  0.653543579370551      -0.559517047723392       0.532117713460038     
  0.549445213299137      -0.387102255922268       0.309914351213843     
  0.680477651250362      -0.702587992246508       0.644189619073992     
 -0.604795150301372       0.595850316111774      -0.462876349202064     
 -0.614859102416174       0.769613107768815      -0.605383377588327     
 -0.699666727670667       0.633106962741770      -0.390881136727922     
[...]
  0.000000000000000E+000  0.000000000000000E+000  0.000000000000000E+000
  0.000000000000000E+000  0.000000000000000E+000  0.000000000000000E+000
  0.000000000000000E+000  0.000000000000000E+000  0.000000000000000E+000
  0.000000000000000E+000  0.000000000000000E+000  0.000000000000000E+000
  0.000000000000000E+000  0.000000000000000E+000  0.000000000000000E+000
  0.000000000000000E+000  0.000000000000000E+000  0.000000000000000E+000
  0.000000000000000E+000  0.000000000000000E+000  0.000000000000000E+000
  0.000000000000000E+000  0.000000000000000E+000  0.000000000000000E+000
  0.000000000000000E+000  0.000000000000000E+000  0.000000000000000E+000
  0.000000000000000E+000  0.000000000000000E+000  0.000000000000000E+000
  0.000000000000000E+000  0.000000000000000E+000  0.000000000000000E+000
  0.000000000000000E+000  0.000000000000000E+000  0.000000000000000E+000
  0.000000000000000E+000  0.000000000000000E+000  0.000000000000000E+000
 optimal delta lambda: 
 -2.164387189673670E-003  1.457109394827638E-003 -1.661754153975366E-003
 -4.373104725702601E-003  4.946284202564833E-003 -2.854219504950864E-003
 -5.119676083918833E-003  5.765031366908368E-003 -3.323388468068783E-003
 -2.741411010764677E-003  3.218254741561705E-003 -2.332687683944621E-003
 -4.916315785099156E-003  5.854482865561525E-003 -3.086580943451308E-003
 -2.251210526795705E-003  2.436828306918210E-003 -1.762263509933710E-003
 -2.230325511105548E-003  2.494241374788065E-003 -1.891472236437279E-003
 -4.657359132696883E-003  4.292652432133215E-003 -4.507919588778247E-003
  7.578417293403793E-004 -1.348382357445296E-003  4.811494261817037E-004
  3.698498411158386E-003 -3.247393606395697E-003  3.558246447826279E-003
  2.203726517807815E-003 -2.002289235184261E-003  1.635289844169938E-003
  3.771170869105043E-003 -3.791591373453946E-003  2.316075514931390E-003
 -2.031302707187649E-004 -2.291221341447455E-004  8.170569881381394E-004
  1.716323569930214E-003 -2.262434237916017E-003  1.629665455831459E-003
  1.887278057959129E-003 -1.250274414125371E-003  8.474837965032355E-004
  3.042889993172572E-003 -3.186909445775514E-003  2.128964352588067E-003
  0.000000000000000E+000  0.000000000000000E+000  0.000000000000000E+000
  0.000000000000000E+000  0.000000000000000E+000  0.000000000000000E+000
  0.000000000000000E+000  0.000000000000000E+000  0.000000000000000E+000
  0.000000000000000E+000  0.000000000000000E+000  0.000000000000000E+000
  0.000000000000000E+000  0.000000000000000E+000  0.000000000000000E+000
  0.000000000000000E+000  0.000000000000000E+000  0.000000000000000E+000
  0.000000000000000E+000  0.000000000000000E+000  0.000000000000000E+000
  0.000000000000000E+000  0.000000000000000E+000  0.000000000000000E+000
  0.000000000000000E+000  0.000000000000000E+000  0.000000000000000E+000
  0.000000000000000E+000  0.000000000000000E+000  0.000000000000000E+000
  0.000000000000000E+000  0.000000000000000E+000  0.000000000000000E+000
  0.000000000000000E+000  0.000000000000000E+000  0.000000000000000E+000
  0.000000000000000E+000  0.000000000000000E+000  0.000000000000000E+000
  0.000000000000000E+000  0.000000000000000E+000  0.000000000000000E+000
  0.000000000000000E+000  0.000000000000000E+000  0.000000000000000E+000
  0.000000000000000E+000  0.000000000000000E+000  0.000000000000000E+000
       N       E                     dE             d eps       ncg     rms          rms(c)
DIA:   1    -0.166183025444E+03   -0.16618E+03    0.00000E+00     0   0.000E+00
 diagonal gradient:
  0.453526328905125       0.175144390341533       0.453635456601846     
 -9.314547346016154E-002  0.371905624593531       0.197432487648837     
  0.100055418361933       0.429127992563244       0.177908158037323     
  0.152009086704300       -1.76707278116141        1.25388504693595     
  2.095723849672806E-002 -0.161482142880465       0.152135456702024     
  0.125267242189269      -0.146614875376549       -1.41487419327127     
  6.668514547780761E-002  0.145521371801408       0.308913156727795     
  7.354274282571364E-002  4.606572624772211E-002 -0.101625658676010     
 -0.143195524379578       0.123456223223394      -0.383552699547019     
  0.133594620998273       0.501929862148873       0.124791161352098     
  6.776680052596509E-002  9.869227400055778E-003  4.059948612520556E-004
  9.207275948595790E-002  0.107636838040925       0.452747196537976     
  0.494824241218749      -1.439520655106531E-003  0.158395258982752     
   1.58737413667611       0.139357244598490       2.444313813697993E-002
  0.134032285594099      -3.926458082550097E-002  0.462579497873196     
  8.476958213294689E-002 -6.792327477277350E-002  3.840653420138493E-002
  0.000000000000000E+000  0.000000000000000E+000  0.000000000000000E+000
  0.000000000000000E+000  0.000000000000000E+000  0.000000000000000E+000
  0.000000000000000E+000  0.000000000000000E+000  0.000000000000000E+000
  0.000000000000000E+000  0.000000000000000E+000  0.000000000000000E+000
  0.000000000000000E+000  0.000000000000000E+000  0.000000000000000E+000
  0.000000000000000E+000  0.000000000000000E+000  0.000000000000000E+000
  0.000000000000000E+000  0.000000000000000E+000  0.000000000000000E+000
  0.000000000000000E+000  0.000000000000000E+000  0.000000000000000E+000
  0.000000000000000E+000  0.000000000000000E+000  0.000000000000000E+000
  0.000000000000000E+000  0.000000000000000E+000  0.000000000000000E+000
  0.000000000000000E+000  0.000000000000000E+000  0.000000000000000E+000
  0.000000000000000E+000  0.000000000000000E+000  0.000000000000000E+000
  0.000000000000000E+000  0.000000000000000E+000  0.000000000000000E+000
  0.000000000000000E+000  0.000000000000000E+000  0.000000000000000E+000
  0.000000000000000E+000  0.000000000000000E+000  0.000000000000000E+000
  0.000000000000000E+000  0.000000000000000E+000  0.000000000000000E+000
 maximum gradient appears at: 
 ( 2 , 4 ) ( 1 , 1 ) 
 maximum gradient: 
 0.17670728E+01 0.00000000E+00 
 current spin:
  0.791920875127808      -0.805100861440336       0.589060646898687     
  0.791919515696685      -0.805099495395388       0.589059506547453     
  0.791919314556656      -0.805099449322667       0.589059432288988     
  0.791920599730561      -0.805100707949205       0.589060538598791     
  0.749879560032674      -0.890529556281514       0.516679667680859     
  0.791920803378781      -0.805100882665190       0.589060642234889     
  0.791920586101803      -0.805100523613558       0.589060422273961     
  0.764769317552340      -0.729099384564945       0.711229372746936     
 -0.791919825218194       0.805099838482856      -0.589059868250876     
 -0.729858852163478       0.760538761623228      -0.714978861037342     
 -0.791919214139099       0.805099245460277      -0.589059393132566     
 -0.791918371401908       0.805098395564663      -0.589058719154388     
 -0.641379968830270       0.847890098597010      -0.701450160931840     
 -0.791919196541921       0.805099349039593      -0.589059410748521     
 -0.851379932917226       0.769049925760014      -0.553189857654712     
 -0.791918776645914       0.805098687106361      -0.589059099340744     
  2.010598999008569E-003 -9.967018803541175E-004 -3.701605484706113E-003
  1.582031668787818E-004 -1.237393680140401E-004  1.298020121735489E-004
 -2.979092623422060E-004 -4.851961784126647E-004  4.466268194603799E-004
  1.447843119530120E-004  3.602857010982477E-004 -1.056681266284516E-004
 -3.847111428600550E-004 -5.083376231236711E-004  4.597820087988073E-004
  1.527796607737992E-003 -2.581006520489034E-005 -2.218814293663461E-003
  7.090836345663306E-004  4.509932118195159E-004 -7.424671852875711E-004
 -2.820425308075075E-004 -4.980502720901001E-004  3.843499325230197E-004
  2.569540422848998E-003 -1.519318001515016E-004 -2.697779595882185E-003
 -6.939180692861770E-004  2.048270611254739E-005  4.282478114311160E-004
 -1.362119818736792E-003 -3.787618731245169E-004  7.795483113205187E-004
  7.546087403447817E-004 -6.775666138329778E-004 -1.103851001886631E-003
 -9.831753346132830E-004  4.480797225235472E-004  1.516515942926545E-003
  2.611729652297017E-003 -1.816866203481402E-004 -2.624224889112710E-003
  1.701581277275120E-003  2.077423890645229E-004 -1.054231069923579E-003
 -1.065746550585558E-003 -1.147399155243132E-003 -5.464313504573799E-004
 target spin: 
  0.791920000000000      -0.805100000000000       0.589060000000000     
  0.791920000000000      -0.805100000000000       0.589060000000000     
  0.791920000000000      -0.805100000000000       0.589060000000000     
  0.791920000000000      -0.805100000000000       0.589060000000000     
  0.749880000000000      -0.890530000000000       0.516680000000000     
  0.791920000000000      -0.805100000000000       0.589060000000000     
  0.791920000000000      -0.805100000000000       0.589060000000000     
  0.764770000000000      -0.729100000000000       0.711230000000000     
 -0.791920000000000       0.805100000000000      -0.589060000000000     
 -0.729860000000000       0.760540000000000      -0.714980000000000     
 -0.791920000000000       0.805100000000000      -0.589060000000000     
 -0.791920000000000       0.805100000000000      -0.589060000000000     
 -0.641380000000000       0.847890000000000      -0.701450000000000     
 -0.791920000000000       0.805100000000000      -0.589060000000000     
 -0.851380000000000       0.769050000000000      -0.553190000000000     
 -0.791920000000000       0.805100000000000      -0.589060000000000     
  0.000000000000000E+000  0.000000000000000E+000  0.000000000000000E+000
  0.000000000000000E+000  0.000000000000000E+000  0.000000000000000E+000
  0.000000000000000E+000  0.000000000000000E+000  0.000000000000000E+000
  0.000000000000000E+000  0.000000000000000E+000  0.000000000000000E+000
  0.000000000000000E+000  0.000000000000000E+000  0.000000000000000E+000
  0.000000000000000E+000  0.000000000000000E+000  0.000000000000000E+000
  0.000000000000000E+000  0.000000000000000E+000  0.000000000000000E+000
  0.000000000000000E+000  0.000000000000000E+000  0.000000000000000E+000
  0.000000000000000E+000  0.000000000000000E+000  0.000000000000000E+000
  0.000000000000000E+000  0.000000000000000E+000  0.000000000000000E+000
  0.000000000000000E+000  0.000000000000000E+000  0.000000000000000E+000
  0.000000000000000E+000  0.000000000000000E+000  0.000000000000000E+000
  0.000000000000000E+000  0.000000000000000E+000  0.000000000000000E+000
  0.000000000000000E+000  0.000000000000000E+000  0.000000000000000E+000
  0.000000000000000E+000  0.000000000000000E+000  0.000000000000000E+000
  0.000000000000000E+000  0.000000000000000E+000  0.000000000000000E+000
Step (Outer -- Inner) =  39 -- 6       RMS =  7.560411835376E-07
 -------------------------------------------------------------------------------
Meet convergence criterion ( < 1.000E-06 ), exit.
 Inner optimization for lambda ends.
 ===============================================================================
 final optimal lambda: 
  3.743673526766048E-003 -1.850561290301840E-003  1.590394180856853E-003
 -1.067748202760879E-002  8.181998666784398E-003 -1.070627188361039E-002
 -9.717459734490935E-003  9.560602184171239E-003 -7.770946703600585E-003
  8.946796287776040E-004  4.444452793282815E-003 -6.027291903205676E-003
 -1.109556379011331E-002  1.103604652948510E-002 -1.675723601273717E-002
 -2.674514163134740E-003  2.772923457391978E-003 -2.250445798693925E-003
 -3.354748139578902E-003  7.227061128270381E-004 -5.096276220825004E-003
 -1.176438648216467E-002  1.516891033704360E-002 -2.141538385598957E-003
  6.343068545434604E-003 -5.722824801042581E-003  9.522888772050020E-003
  1.080066152712687E-002 -1.053738566209544E-002 -6.667340236671594E-004
  6.168179735614321E-003 -6.416401205797389E-003  4.472927855627724E-003
  6.280277060209714E-003 -1.007786068526614E-002  3.316608869937387E-003
  1.527252848028447E-002 -9.399558034778448E-003 -1.117439986505242E-003
  6.837259013764798E-003 -6.972796525523420E-003  5.377608065832760E-003
  3.704485324531599E-003 -9.314327000684623E-003  7.180428114351420E-003
  5.677244423306025E-003 -4.910723994624309E-003  8.915302134754742E-003
  0.000000000000000E+000  0.000000000000000E+000  0.000000000000000E+000
  0.000000000000000E+000  0.000000000000000E+000  0.000000000000000E+000
  0.000000000000000E+000  0.000000000000000E+000  0.000000000000000E+000
  0.000000000000000E+000  0.000000000000000E+000  0.000000000000000E+000
  0.000000000000000E+000  0.000000000000000E+000  0.000000000000000E+000
  0.000000000000000E+000  0.000000000000000E+000  0.000000000000000E+000
  0.000000000000000E+000  0.000000000000000E+000  0.000000000000000E+000
  0.000000000000000E+000  0.000000000000000E+000  0.000000000000000E+000
  0.000000000000000E+000  0.000000000000000E+000  0.000000000000000E+000
  0.000000000000000E+000  0.000000000000000E+000  0.000000000000000E+000
  0.000000000000000E+000  0.000000000000000E+000  0.000000000000000E+000
  0.000000000000000E+000  0.000000000000000E+000  0.000000000000000E+000
  0.000000000000000E+000  0.000000000000000E+000  0.000000000000000E+000
  0.000000000000000E+000  0.000000000000000E+000  0.000000000000000E+000
  0.000000000000000E+000  0.000000000000000E+000  0.000000000000000E+000
  0.000000000000000E+000  0.000000000000000E+000  0.000000000000000E+000
    0.101E-01
DAV:  40    -0.166307881682E+03    0.96586E-07   -0.27056E-04  5384   0.738E-02
   1 F= -.16630788E+03 E0= -.16630788E+03  d E =0.000000E+00  mag=     0.1244    -0.0692    -0.2268
RMS:
2.419263634658E-04
Energy:
-166.30788168
Cartesian Coordinates:
0.00000000 0.00000000 0.00000000 4.26718057 1.28738040 2.52196364 23.04910960 5.40712734 5.05018527 18.78147146 4.12009386 2.52506263 13.65834674 2.57357702 5.05011102 17.92609336 6.95462403 2.52540542 17.92603912 5.40761726 5.05031954 13.65840098 4.12058379 2.52519690 6.82920049 2.06029189 1.26259845 11.09683862 3.34732537 3.78772110 11.09689287 4.89433214 1.26280697 15.36453100 6.18136562 3.78792962 11.95227097 2.05980196 1.26246418 16.21990910 3.34683544 3.78758683 16.21996335 4.89384221 1.26267270 20.48760148 6.18087568 3.78779535 3.41460025 1.03014595 0.63129922 7.68223837 2.31717942 3.15642187 7.68229262 3.86418619 0.63150775 11.94993075 5.15121967 3.15663039 8.53767073 1.02965602 0.63116495 12.80530885 2.31668949 3.15628760 12.80536310 3.86369626 0.63137348 17.07300123 5.15072974 3.15649612 10.24380074 3.09043784 1.89389767 14.50959269 4.37996130 4.41479020 14.51149312 5.92447809 1.89410619 18.77913124 7.21151156 4.41922884 15.36687122 3.08994791 1.89376340 19.63450935 4.37698139 4.41888605 19.63456360 5.92398816 1.89397192 23.90220172 7.21102163 4.41909457
Magnetization:
0.791471276 -0.804859626 0.588898430 0.791724396 -0.804900138 0.588858775 0.791639744 -0.804857929 0.588891568 0.791650449 -0.804845460 0.588861478 0.749685060 -0.890346436 0.516474264 0.791695380 -0.804866554 0.588903791 0.791700408 -0.804858512 0.588886806 0.764552650 -0.728953141 0.711035673 -0.791667269 0.804944610 -0.588903002 -0.729558247 0.760206937 -0.714675753 -0.791616845 0.804798486 -0.588840654 -0.791628869 0.804808881 -0.588832796 -0.641135210 0.847627197 -0.701284875 -0.791657557 0.804855069 -0.588885779 -0.851156049 0.768815885 -0.553001776 -0.791562618 0.804810765 -0.588836275 0.002025605 -0.001000776 -0.003716231 0.000120872 -0.000135969 0.000075152 -0.000325088 -0.000493151 0.000381802 0.000171204 0.000372383 -0.000118814 -0.000429032 -0.000513527 0.000425564 0.001542184 -0.000023138 -0.002222517 0.000729511 0.000451801 -0.000747299 -0.000321259 -0.000505857 0.000347470 0.002558124 -0.000092064 -0.002692693 -0.000697369 0.000025658 0.000465462 -0.001356852 -0.000377517 0.000799609 0.000748544 -0.000615756 -0.001120479 -0.000990732 0.000450712 0.001566928 0.002597057 -0.000130810 -0.002636528 0.001699399 0.000271142 -0.001064701 -0.001080065 -0.001139316 -0.000498807
Magnetization Difference from Target:
-0.000448724 0.000240374 -0.000161570 -0.000195604 0.000199862 -0.000201225 -0.000280256 0.000242071 -0.000168432 -0.000269551 0.000254540 -0.000198522 -0.000194940 0.000183564 -0.000205736 -0.000224620 0.000233446 -0.000156209 -0.000219592 0.000241488 -0.000173194 -0.000217350 0.000146859 -0.000194327 0.000252731 -0.000155390 0.000156998 0.000301753 -0.000333063 0.000304247 0.000303155 -0.000301514 0.000219346 0.000291131 -0.000291119 0.000227204 0.000244790 -0.000262803 0.000165125 0.000262443 -0.000244931 0.000174221 0.000223951 -0.000234115 0.000188224 0.000357382 -0.000289235 0.000223725 0.002025605 -0.001000776 -0.003716231 0.000120872 -0.000135969 0.000075152 -0.000325088 -0.000493151 0.000381802 0.000171204 0.000372383 -0.000118814 -0.000429032 -0.000513527 0.000425564 0.001542184 -0.000023138 -0.002222517 0.000729511 0.000451801 -0.000747299 -0.000321259 -0.000505857 0.000347470 0.002558124 -0.000092064 -0.002692693 -0.000697369 0.000025658 0.000465462 -0.001356852 -0.000377517 0.000799609 0.000748544 -0.000615756 -0.001120479 -0.000990732 0.000450712 0.001566928 0.002597057 -0.000130810 -0.002636528 0.001699399 0.000271142 -0.001064701 -0.001080065 -0.001139316 -0.000498807
Atomic Force:
0.0005133880 -0.0000443229 -0.0002058553 0.0046854747 -0.0045138418 0.0357948492 -0.0023222581 0.0086814564 -0.0093109082 -0.0003802078 -0.0000892188 0.0002072977 0.0055857896 0.0010248256 -0.0096060234 0.0003611377 0.0000319577 0.0004512203 0.0001852657 0.0003526281 0.0001223730 -0.0056699743 0.0015272822 -0.0074291252 -0.0088051199 -0.0013892107 -0.0096514378 0.0061169588 0.0024200626 -0.0019027217 0.0049029595 -0.0011072790 0.0026466660 -0.0075832950 0.0046094826 -0.0046858989 0.0026996452 0.0035049915 0.0014043767 -0.0104165960 -0.0014098498 -0.0026742448 -0.0067196770 -0.0020186582 -0.0024768241 0.0083714308 0.0020901025 0.0004864913 -0.0062211925 -0.0006644235 -0.0067117637 0.0054965707 0.0027597942 0.0017443724 0.0079254552 0.0020092652 0.0029970195 -0.0082956945 -0.0011447948 -0.0066727399 0.0037845631 0.0044189248 -0.0016146798 -0.0033343118 -0.0039460397 0.0000816627 -0.0039838117 -0.0026160027 -0.0025035743 0.0034944511 0.0021046470 -0.0014013302 -0.0028851908 -0.0039764291 -0.0002235074 0.0219489074 -0.0220818794 0.0438033053 0.0041913614 0.0060674068 -0.0118795246 -0.0075192959 0.0022049445 0.0013465881 0.0081123580 -0.0018260602 -0.0024495676 -0.0090256730 -0.0020314508 -0.0018985232 -0.0066632117 -0.0013192013 -0.0034728057 0.0014497930 0.0063708908 -0.0043151660
Magnetic Force:
-0.37436735E-02 0.18505613E-02 -0.15903942E-02 0.10677482E-01 -0.81819987E-02 0.10706272E-01 0.97174597E-02 -0.95606022E-02 0.77709467E-02 -0.89467963E-03 -0.44444528E-02 0.60272919E-02 0.11095564E-01 -0.11036047E-01 0.16757236E-01 0.26745142E-02 -0.27729235E-02 0.22504458E-02 0.33547481E-02 -0.72270611E-03 0.50962762E-02 0.11764386E-01 -0.15168910E-01 0.21415384E-02 -0.63430685E-02 0.57228248E-02 -0.95228888E-02 -0.10800662E-01 0.10537386E-01 0.66673402E-03 -0.61681797E-02 0.64164012E-02 -0.44729279E-02 -0.62802771E-02 0.10077861E-01 -0.33166089E-02 -0.15272528E-01 0.93995580E-02 0.11174400E-02 -0.68372590E-02 0.69727965E-02 -0.53776081E-02 -0.37044853E-02 0.93143270E-02 -0.71804281E-02 -0.56772444E-02 0.49107240E-02 -0.89153021E-02 0.00000000E+00 0.00000000E+00 0.00000000E+00 0.00000000E+00 0.00000000E+00 0.00000000E+00 0.00000000E+00 0.00000000E+00 0.00000000E+00 0.00000000E+00 0.00000000E+00 0.00000000E+00 0.00000000E+00 0.00000000E+00 0.00000000E+00 0.00000000E+00 0.00000000E+00 0.00000000E+00 0.00000000E+00 0.00000000E+00 0.00000000E+00 0.00000000E+00 0.00000000E+00 0.00000000E+00 0.00000000E+00 0.00000000E+00 0.00000000E+00 0.00000000E+00 0.00000000E+00 0.00000000E+00 0.00000000E+00 0.00000000E+00 0.00000000E+00 0.00000000E+00 0.00000000E+00 0.00000000E+00 0.00000000E+00 0.00000000E+00 0.00000000E+00 0.00000000E+00 0.00000000E+00 0.00000000E+00 0.00000000E+00 0.00000000E+00 0.00000000E+00 0.00000000E+00 0.00000000E+00 0.00000000E+00
Time Cost:
0 DAYS 01:04:39

