
2880 atoms
2 atom types
   0.0000000000   80.0046997070 xlo xhi
   0.0000000000    8.4331998825 ylo yhi
   0.0000000000   38.7482986450 zlo zhi
   0.0000000000    0.0000000000    0.0000000000 xy xz yz

Masses

1 58.690000
2 16.000000

Atoms # spin

     1      1  11.3430700000 	2.0963200000 	0.0073600000   -0.51638874 -0.81647984 -0.25826989  1.2737  
     2      1  24.6774500000 	2.0963200000 	0.0073600000   -0.51638874 -0.81647984 -0.25826989  1.2737  
     3      1  4.6762700000 	2.0963200000 	0.0073600000   -0.51638874 -0.81647984 -0.25826989  1.2737
     4      1  18.0106600000 	2.0963200000 	0.0073600000   -0.51638874 -0.81647984 -0.25826989  1.2737
     5      1  38.0118300000 	2.0963200000 	0.0073600000   -0.51638874 -0.81647984 -0.25826989  1.2737
     6      1  51.3454200000 	2.0963200000 	0.0073600000   -0.51638874 -0.81647984 -0.25826989  1.2737
     7      1  31.3442400000 	2.0963200000 	0.0073600000   -0.51638874 -0.81647984 -0.25826989  1.2737
     8      1  44.6786200000 	2.0963200000 	0.0073600000   -0.51638874 -0.81647984 -0.25826989  1.2737
     9      1  64.6798000000 	2.0963200000 	0.0073600000   -0.51638874 -0.81647984 -0.25826989  1.2737
    10      1  78.0141800000 	2.0963200000 	0.0073600000   -0.51638874 -0.81647984 -0.25826989  1.2737
    11      1  58.0130100000 	2.0963200000 	0.0073600000   -0.51638874 -0.81647984 -0.25826989  1.2737
    12      1  71.3465900000 	2.0963200000 	0.0073600000   -0.51638874 -0.81647984 -0.25826989  1.2737
    13      1  11.3430700000 	2.0963200000 	0.0073600000   -0.51638874 -0.81647984 -0.25826989  1.2737
    14      1  24.6774500000 	2.0963200000 	0.0073600000   -0.51638874 -0.81647984 -0.25826989  1.2737
    15      1  4.6762700000 	2.0963200000 	0.0073600000   -0.51638874 -0.81647984 -0.25826989  1.2737
    16      1  18.0106600000 	2.0963200000 	0.0073600000   -0.51638874 -0.81647984 -0.25826989  1.2737
    17      1  38.0118300000 	2.0963200000 	0.0073600000   -0.51638874 -0.81647984 -0.25826989  1.2737
    18      1  51.3454200000 	2.0963200000 	0.0073600000   -0.51638874 -0.81647984 -0.25826989  1.2737
    19      1  31.3442400000 	2.0963200000 	0.0073600000   -0.51638874 -0.81647984 -0.25826989  1.2737
    20      1  44.6786200000 	2.0963200000 	0.0073600000   -0.51638874 -0.81647984 -0.25826989  1.2737
    21      1  64.6798000000 	2.0963200000 	0.0073600000   -0.51638874 -0.81647984 -0.25826989  1.2737
    22      1  78.0141800000 	2.0963200000 	0.0073600000   -0.51638874 -0.81647984 -0.25826989  1.2737
    23      1  58.0130100000 	2.0963200000 	0.0073600000   -0.51638874 -0.81647984 -0.25826989  1.2737
    24      1  71.3465900000 	2.0963200000 	0.0073600000   -0.51638874 -0.81647984 -0.25826989  1.2737
    25      1  9.3429500000 	8.4212200000 	0.6738300000   -0.51638874 -0.81647984 -0.25826989  1.2737
    26      1  22.6773300000 	8.4212200000 	0.6738300000   -0.51638874 -0.81647984 -0.25826989  1.2737
    27      1  16.0105400000 	8.4212200000 	0.6738300000   -0.51638874 -0.81647984 -0.25826989  1.2737
    28      1  2.6761600000 	8.4212200000 	0.6738300000   -0.51638874 -0.81647984 -0.25826989  1.2737
    29      1  36.0117200000 	8.4212200000 	0.6738300000   -0.51638874 -0.81647984 -0.25826989  1.2737
    30      1  49.3453000000 	8.4212200000 	0.6738300000   -0.51638874 -0.81647984 -0.25826989  1.2737
    31      1  42.6785100000 	8.4212200000 	0.6738300000   -0.51638874 -0.81647984 -0.25826989  1.2737
    32      1  29.3441200000 	8.4212200000 	0.6738300000   -0.51638874 -0.81647984 -0.25826989  1.2737
    33      1  62.6796800000 	8.4212200000 	0.6738300000   -0.51638874 -0.81647984 -0.25826989  1.2737
    34      1  76.0140600000 	8.4212200000 	0.6738300000   -0.51638874 -0.81647984 -0.25826989  1.2737
    35      1  69.3464700000 	8.4212200000 	0.6738300000   -0.51638874 -0.81647984 -0.25826989  1.2737
    36      1  56.0128900000 	8.4212200000 	0.6738300000   -0.51638874 -0.81647984 -0.25826989  1.2737
    37      1  14.0104200000 	6.3129200000 	1.3403000000   -0.51638874 -0.81647984 -0.25826989  1.2737
    38      1  0.6760400000 	6.3129200000 	1.3403000000   -0.51638874 -0.81647984 -0.25826989  1.2737
    39      1  7.3428300000 	6.3129200000 	1.3403000000   -0.51638874 -0.81647984 -0.25826989  1.2737
    40      1  20.6772100000 	6.3129200000 	1.3403000000   -0.51638874 -0.81647984 -0.25826989  1.2737
    41      1  40.6783900000 	6.3129200000 	1.3403000000   -0.51638874 -0.81647984 -0.25826989  1.2737
    42      1  27.3440100000 	6.3129200000 	1.3403000000   -0.51638874 -0.81647984 -0.25826989  1.2737
    43      1  34.0116000000 	6.3129200000 	1.3403000000   -0.51638874 -0.81647984 -0.25826989  1.2737
    44      1  47.3451800000 	6.3129200000 	1.3403000000   -0.51638874 -0.81647984 -0.25826989  1.2737
    45      1  67.3463600000 	6.3129200000 	1.3403000000   -0.51638874 -0.81647984 -0.25826989  1.2737
    46      1  54.0127700000 	6.3129200000 	1.3403000000   -0.51638874 -0.81647984 -0.25826989  1.2737
    47      1  60.6795600000 	6.3129200000 	1.3403000000   -0.51638874 -0.81647984 -0.25826989  1.2737
    48      1  74.0139500000 	6.3129200000 	1.3403000000   -0.51638874 -0.81647984 -0.25826989  1.2737
    49      1  12.0103100000 	4.2046200000 	2.0071600000   -0.51638874 -0.81647984 -0.25826989  1.2737
    50      1  25.3438900000 	4.2046200000 	2.0071600000   -0.51638874 -0.81647984 -0.25826989  1.2737
    51      1  18.6771000000 	4.2046200000 	2.0071600000   -0.51638874 -0.81647984 -0.25826989  1.2737
    52      1  5.3427100000 	4.2046200000 	2.0071600000   -0.51638874 -0.81647984 -0.25826989  1.2737
    53      1  38.6782700000 	4.2046200000 	2.0071600000   -0.51638874 -0.81647984 -0.25826989  1.2737
    54      1  52.0126600000 	4.2046200000 	2.0071600000   -0.51638874 -0.81647984 -0.25826989  1.2737
    55      1  45.3450600000 	4.2046200000 	2.0071600000   -0.51638874 -0.81647984 -0.25826989  1.2737
    56      1  32.0114800000 	4.2046200000 	2.0071600000   -0.51638874 -0.81647984 -0.25826989  1.2737
    57      1  65.3462400000 	4.2046200000 	2.0071600000   -0.51638874 -0.81647984 -0.25826989  1.2737
    58      1  78.6806200000 	4.2046200000 	2.0071600000   -0.51638874 -0.81647984 -0.25826989  1.2737
    59      1  72.0138300000 	4.2046200000 	2.0071600000   -0.51638874 -0.81647984 -0.25826989  1.2737
    60      1  58.6794500000 	4.2046200000 	2.0071600000   -0.51638874 -0.81647984 -0.25826989  1.2737
    61      1  10.0101900000 	2.0963200000 	2.6740200000   -0.51638874 -0.81647984 -0.25826989  1.2737
    62      1  23.3437700000 	2.0963200000 	2.6740200000   -0.51638874 -0.81647984 -0.25826989  1.2737
    63      1  16.6769800000 	2.0963200000 	2.6740200000   -0.51638874 -0.81647984 -0.25826989  1.2737
    64      1  3.3426000000 	2.0963200000 	2.6740200000   -0.51638874 -0.81647984 -0.25826989  1.2737
    65      1  36.6781500000 	2.0963200000 	2.6740200000   -0.51638874 -0.81647984 -0.25826989  1.2737
    66      1  50.0125400000 	2.0963200000 	2.6740200000   -0.51638874 -0.81647984 -0.25826989  1.2737
    67      1  43.3449500000 	2.0963200000 	2.6740200000   -0.51638874 -0.81647984 -0.25826989  1.2737
    68      1  30.0113600000 	2.0963200000 	2.6740200000   -0.51638874 -0.81647984 -0.25826989  1.2737
    69      1  63.3461200000 	2.0963200000 	2.6740200000   -0.51638874 -0.81647984 -0.25826989  1.2737
    70      1  76.6805100000 	2.0963200000 	2.6740200000   -0.51638874 -0.81647984 -0.25826989  1.2737
    71      1  70.0137100000 	2.0963200000 	2.6740200000   -0.51638874 -0.81647984 -0.25826989  1.2737
    72      1  56.6793300000 	2.0963200000 	2.6740200000   -0.51638874 -0.81647984 -0.25826989  1.2737
    73      1  21.3436500000 	8.4212200000 	3.3404900000   -0.51638874 -0.81647984 -0.25826989  1.2737
    74      1  8.0100700000 	8.4212200000 	3.3404900000   -0.51638874 -0.81647984 -0.25826989  1.2737
    75      1  14.6768600000 	8.4212200000 	3.3404900000   -0.51638874 -0.81647984 -0.25826989  1.2737
    76      1  1.3424800000 	8.4212200000 	3.3404900000   -0.51638874 -0.81647984 -0.25826989  1.2737
    77      1  48.0124200000 	8.4212200000 	3.3404900000   -0.51638874 -0.81647984 -0.25826989  1.2737
    78      1  34.6780400000 	8.4212200000 	3.3404900000   -0.51638874 -0.81647984 -0.25826989  1.2737
    79      1  41.3448300000 	8.4212200000 	3.3404900000   -0.51638874 -0.81647984 -0.25826989  1.2737
    80      1  28.0112500000 	8.4212200000 	3.3404900000   -0.51638874 -0.81647984 -0.25826989  1.2737
    81      1  74.6803900000 	8.4212200000 	3.3404900000   -0.51638874 -0.81647984 -0.25826989  1.2737
    82      1  61.3460100000 	8.4212200000 	3.3404900000   -0.51638874 -0.81647984 -0.25826989  1.2737
    83      1  68.0136000000 	8.4212200000 	3.3404900000   -0.51638874 -0.81647984 -0.25826989  1.2737
    84      1  54.6792100000 	8.4212200000 	3.3404900000   -0.51638874 -0.81647984 -0.25826989  1.2737
    85      1  12.6767500000 	6.3129200000 	4.0073500000   -0.51638874 -0.81647984 -0.25826989  1.2737
    86      1  26.0111300000 	6.3129200000 	4.0073500000   -0.51638874 -0.81647984 -0.25826989  1.2737
    87      1  19.3435400000 	6.3129200000 	4.0073500000   -0.51638874 -0.81647984 -0.25826989  1.2737
    88      1  6.0099500000 	6.3129200000 	4.0073500000   -0.51638874 -0.81647984 -0.25826989  1.2737
    89      1  39.3447100000 	6.3129200000 	4.0073500000   -0.51638874 -0.81647984 -0.25826989  1.2737
    90      1  52.6791000000 	6.3129200000 	4.0073500000   -0.51638874 -0.81647984 -0.25826989  1.2737
    91      1  46.0123000000 	6.3129200000 	4.0073500000   -0.51638874 -0.81647984 -0.25826989  1.2737
    92      1  32.6779200000 	6.3129200000 	4.0073500000   -0.51638874 -0.81647984 -0.25826989  1.2737
    93      1  66.0134800000 	6.3129200000 	4.0073500000   -0.51638874 -0.81647984 -0.25826989  1.2737
    94      1  79.3470600000 	6.3129200000 	4.0073500000   -0.51638874 -0.81647984 -0.25826989  1.2737
    95      1  72.6802700000 	6.3129200000 	4.0073500000   -0.51638874 -0.81647984 -0.25826989  1.2737
    96      1  59.3458800000 	6.3129200000 	4.0073500000   -0.51638874 -0.81647984 -0.25826989  1.2737
    97      1  24.0110100000 	4.2046200000 	4.6742100000   -0.51638874 -0.81647984 -0.25826989  1.2737
    98      1  10.6766300000 	4.2046200000 	4.6742100000   -0.51638874 -0.81647984 -0.25826989  1.2737
    99      1  17.3434200000 	4.2046200000 	4.6742100000   -0.51638874 -0.81647984 -0.25826989  1.2737
   100      1  4.0098400000 	4.2046200000 	4.6742100000   -0.51638874 -0.81647984 -0.25826989  1.2737
   101      1  50.6789700000 	4.2046200000 	4.6742100000   -0.51638874 -0.81647984 -0.25826989  1.2737
   102      1  37.3445900000 	4.2046200000 	4.6742100000   -0.51638874 -0.81647984 -0.25826989  1.2737
   103      1  44.0121900000 	4.2046200000 	4.6742100000   -0.51638874 -0.81647984 -0.25826989  1.2737
   104      1  30.6778000000 	4.2046200000 	4.6742100000   -0.51638874 -0.81647984 -0.25826989  1.2737
   105      1  77.3469400000 	4.2046200000 	4.6742100000   -0.51638874 -0.81647984 -0.25826989  1.2737
   106      1  64.0133600000 	4.2046200000 	4.6742100000   -0.51638874 -0.81647984 -0.25826989  1.2737
   107      1  70.6801500000 	4.2046200000 	4.6742100000   -0.51638874 -0.81647984 -0.25826989  1.2737
   108      1  57.3457700000 	4.2046200000 	4.6742100000   -0.51638874 -0.81647984 -0.25826989  1.2737
   109      1  22.0108900000 	2.0963200000 	5.3406800000   -0.51638874 -0.81647984 -0.25826989  1.2737
   110      1  8.6765100000 	2.0963200000 	5.3406800000   -0.51638874 -0.81647984 -0.25826989  1.2737
   111      1  15.3433000000 	2.0963200000 	5.3406800000   -0.51638874 -0.81647984 -0.25826989  1.2737
   112      1  2.0097200000 	2.0963200000 	5.3406800000   -0.51638874 -0.81647984 -0.25826989  1.2737
   113      1  48.6788600000 	2.0963200000 	5.3406800000   -0.51638874 -0.81647984 -0.25826989  1.2737
   114      1  35.3444800000 	2.0963200000 	5.3406800000   -0.51638874 -0.81647984 -0.25826989  1.2737
   115      1  42.0120700000 	2.0963200000 	5.3406800000   -0.51638874 -0.81647984 -0.25826989  1.2737
   116      1  28.6776800000 	2.0963200000 	5.3406800000   -0.51638874 -0.81647984 -0.25826989  1.2737
   117      1  75.3468200000 	2.0963200000 	5.3406800000   -0.51638874 -0.81647984 -0.25826989  1.2737
   118      1  62.0132400000 	2.0963200000 	5.3406800000   -0.51638874 -0.81647984 -0.25826989  1.2737
   119      1  68.6800300000 	2.0963200000 	5.3406800000   -0.51638874 -0.81647984 -0.25826989  1.2737
   120      1  55.3456500000 	2.0963200000 	5.3406800000   -0.51638874 -0.81647984 -0.25826989  1.2737
   121      1  20.0107800000 	8.4212200000 	6.0075400000   -0.51638874 -0.81647984 -0.25826989  1.2737
   122      1  6.6763900000 	8.4212200000 	6.0075400000   -0.51638874 -0.81647984 -0.25826989  1.2737
   123      1  0.0096000000 	8.4212200000 	6.0075400000   -0.51638874 -0.81647984 -0.25826989  1.2737
   124      1  13.3431800000 	8.4212200000 	6.0075400000   -0.51638874 -0.81647984 -0.25826989  1.2737
   125      1  46.6787400000 	8.4212200000 	6.0075400000   -0.51638874 -0.81647984 -0.25826989  1.2737
   126      1  33.3443600000 	8.4212200000 	6.0075400000   -0.51638874 -0.81647984 -0.25826989  1.2737
   127      1  26.6775700000 	8.4212200000 	6.0075400000   -0.51638874 -0.81647984 -0.25826989  1.2737
   128      1  40.0119500000 	8.4212200000 	6.0075400000   -0.51638874 -0.81647984 -0.25826989  1.2737
   129      1  73.3467100000 	8.4212200000 	6.0075400000   -0.51638874 -0.81647984 -0.25826989  1.2737
   130      1  60.0131200000 	8.4212200000 	6.0075400000   -0.51638874 -0.81647984 -0.25826989  1.2737
   131      1  53.3455300000 	8.4212200000 	6.0075400000   -0.51638874 -0.81647984 -0.25826989  1.2737
   132      1  66.6799200000 	8.4212200000 	6.0075400000   -0.51638874 -0.81647984 -0.25826989  1.2737
   133      1  24.6774500000 	6.3129200000 	6.6740100000   -0.51638874 -0.81647984 -0.25826989  1.2737
   134      1  11.3430700000 	6.3129200000 	6.6740100000   -0.51638874 -0.81647984 -0.25826989  1.2737
   135      1  18.0106600000 	6.3129200000 	6.6740100000   -0.51638874 -0.81647984 -0.25826989  1.2737
   136      1  4.6762700000 	6.3129200000 	6.6740100000   -0.51638874 -0.81647984 -0.25826989  1.2737
   137      1  51.3454200000 	6.3129200000 	6.6740100000   -0.51638874 -0.81647984 -0.25826989  1.2737
   138      1  38.0118300000 	6.3129200000 	6.6740100000   -0.51638874 -0.81647984 -0.25826989  1.2737
   139      1  44.6786200000 	6.3129200000 	6.6740100000   -0.51638874 -0.81647984 -0.25826989  1.2737
   140      1  31.3442400000 	6.3129200000 	6.6740100000   -0.51638874 -0.81647984 -0.25826989  1.2737
   141      1  78.0141800000 	6.3129200000 	6.6740100000   -0.51638874 -0.81647984 -0.25826989  1.2737
   142      1  64.6798000000 	6.3129200000 	6.6740100000   -0.51638874 -0.81647984 -0.25826989  1.2737
   143      1  71.3465900000 	6.3129200000 	6.6740100000   -0.51638874 -0.81647984 -0.25826989  1.2737
   144      1  58.0130100000 	6.3129200000 	6.6740100000   -0.51638874 -0.81647984 -0.25826989  1.2737
   145      1  22.6773300000 	4.2046200000 	7.3408700000   -0.51638874 -0.81647984 -0.25826989  1.2737
   146      1  9.3429500000 	4.2046200000 	7.3408700000   -0.51638874 -0.81647984 -0.25826989  1.2737
   147      1  2.6761600000 	4.2046200000 	7.3408700000   -0.51638874 -0.81647984 -0.25826989  1.2737
   148      1  16.0105400000 	4.2046200000 	7.3408700000   -0.51638874 -0.81647984 -0.25826989  1.2737
   149      1  49.3453000000 	4.2046200000 	7.3408700000   -0.51638874 -0.81647984 -0.25826989  1.2737
   150      1  36.0117200000 	4.2046200000 	7.3408700000   -0.51638874 -0.81647984 -0.25826989  1.2737
   151      1  29.3441200000 	4.2046200000 	7.3408700000   -0.51638874 -0.81647984 -0.25826989  1.2737
   152      1  42.6785100000 	4.2046200000 	7.3408700000   -0.51638874 -0.81647984 -0.25826989  1.2737
   153      1  76.0140600000 	4.2046200000 	7.3408700000   -0.51638874 -0.81647984 -0.25826989  1.2737
   154      1  62.6796800000 	4.2046200000 	7.3408700000   -0.51638874 -0.81647984 -0.25826989  1.2737
   155      1  56.0128900000 	4.2046200000 	7.3408700000   -0.51638874 -0.81647984 -0.25826989  1.2737
   156      1  69.3464700000 	4.2046200000 	7.3408700000   -0.51638874 -0.81647984 -0.25826989  1.2737
   157      1  20.6772100000 	2.0963200000 	8.0077200000   -0.51638874 -0.81647984 -0.25826989  1.2737
   158      1  7.3428300000 	2.0963200000 	8.0077200000   -0.51638874 -0.81647984 -0.25826989  1.2737
   159      1  0.6760400000 	2.0963200000 	8.0077200000   -0.51638874 -0.81647984 -0.25826989  1.2737
   160      1  14.0104200000 	2.0963200000 	8.0077200000   -0.51638874 -0.81647984 -0.25826989  1.2737
   161      1  47.3451800000 	2.0963200000 	8.0077200000   -0.51638874 -0.81647984 -0.25826989  1.2737
   162      1  34.0116000000 	2.0963200000 	8.0077200000   -0.51638874 -0.81647984 -0.25826989  1.2737
   163      1  27.3440100000 	2.0963200000 	8.0077200000   -0.51638874 -0.81647984 -0.25826989  1.2737
   164      1  40.6783900000 	2.0963200000 	8.0077200000   -0.51638874 -0.81647984 -0.25826989  1.2737
   165      1  74.0139500000 	2.0963200000 	8.0077200000   -0.51638874 -0.81647984 -0.25826989  1.2737
   166      1  60.6795600000 	2.0963200000 	8.0077200000   -0.51638874 -0.81647984 -0.25826989  1.2737
   167      1  54.0127700000 	2.0963200000 	8.0077200000   -0.51638874 -0.81647984 -0.25826989  1.2737
   168      1  67.3463600000 	2.0963200000 	8.0077200000   -0.51638874 -0.81647984 -0.25826989  1.2737
   169      1  5.3427100000 	8.4212200000 	8.6741900000   -0.51638874 -0.81647984 -0.25826989  1.2737
   170      1  18.6771000000 	8.4212200000 	8.6741900000   -0.51638874 -0.81647984 -0.25826989  1.2737
   171      1  25.3438900000 	8.4212200000 	8.6741900000   -0.51638874 -0.81647984 -0.25826989  1.2737
   172      1  12.0103100000 	8.4212200000 	8.6741900000   -0.51638874 -0.81647984 -0.25826989  1.2737
   173      1  32.0114800000 	8.4212200000 	8.6741900000   -0.51638874 -0.81647984 -0.25826989  1.2737
   174      1  45.3450600000 	8.4212200000 	8.6741900000   -0.51638874 -0.81647984 -0.25826989  1.2737
   175      1  52.0126600000 	8.4212200000 	8.6741900000   -0.51638874 -0.81647984 -0.25826989  1.2737
   176      1  38.6782700000 	8.4212200000 	8.6741900000   -0.51638874 -0.81647984 -0.25826989  1.2737
   177      1  58.6794500000 	8.4212200000 	8.6741900000   -0.51638874 -0.81647984 -0.25826989  1.2737
   178      1  72.0138300000 	8.4212200000 	8.6741900000   -0.51638874 -0.81647984 -0.25826989  1.2737
   179      1  78.6806200000 	8.4212200000 	8.6741900000   -0.51638874 -0.81647984 -0.25826989  1.2737
   180      1  65.3462400000 	8.4212200000 	8.6741900000   -0.51638874 -0.81647984 -0.25826989  1.2737
   181      1  23.3437700000 	6.3129200000 	9.3410500000   -0.51638874 -0.81647984 -0.25826989  1.2737
   182      1  10.0101900000 	6.3129200000 	9.3410500000   -0.51638874 -0.81647984 -0.25826989  1.2737
   183      1  3.3426000000 	6.3129200000 	9.3410500000   -0.51638874 -0.81647984 -0.25826989  1.2737
   184      1  16.6769800000 	6.3129200000 	9.3410500000   -0.51638874 -0.81647984 -0.25826989  1.2737
   185      1  50.0125400000 	6.3129200000 	9.3410500000   -0.51638874 -0.81647984 -0.25826989  1.2737
   186      1  36.6781500000 	6.3129200000 	9.3410500000   -0.51638874 -0.81647984 -0.25826989  1.2737
   187      1  30.0113600000 	6.3129200000 	9.3410500000   -0.51638874 -0.81647984 -0.25826989  1.2737
   188      1  43.3449500000 	6.3129200000 	9.3410500000   -0.51638874 -0.81647984 -0.25826989  1.2737
   189      1  76.6805100000 	6.3129200000 	9.3410500000   -0.51638874 -0.81647984 -0.25826989  1.2737
   190      1  63.3461200000 	6.3129200000 	9.3410500000   -0.51638874 -0.81647984 -0.25826989  1.2737
   191      1  56.6793300000 	6.3129200000 	9.3410500000   -0.51638874 -0.81647984 -0.25826989  1.2737
   192      1  70.0137100000 	6.3129200000 	9.3410500000   -0.51638874 -0.81647984 -0.25826989  1.2737
   193      1  8.0100700000 	4.2046200000 	10.0079100000  -0.51638874 -0.81647984 -0.25826989  1.2737
   194      1  21.3436500000 	4.2046200000 	10.0079100000  -0.51638874 -0.81647984 -0.25826989  1.2737
   195      1  1.3424800000 	4.2046200000 	10.0079100000  -0.51638874 -0.81647984 -0.25826989  1.2737
   196      1  14.6768600000 	4.2046200000 	10.0079100000  -0.51638874 -0.81647984 -0.25826989  1.2737
   197      1  34.6780400000 	4.2046200000 	10.0079100000  -0.51638874 -0.81647984 -0.25826989  1.2737
   198      1  48.0124200000 	4.2046200000 	10.0079100000  -0.51638874 -0.81647984 -0.25826989  1.2737
   199      1  28.0112500000 	4.2046200000 	10.0079100000  -0.51638874 -0.81647984 -0.25826989  1.2737
   200      1  41.3448300000 	4.2046200000 	10.0079100000  -0.51638874 -0.81647984 -0.25826989  1.2737
   201      1  61.3460100000 	4.2046200000 	10.0079100000  -0.51638874 -0.81647984 -0.25826989  1.2737
   202      1  74.6803900000 	4.2046200000 	10.0079100000  -0.51638874 -0.81647984 -0.25826989  1.2737
   203      1  54.6792100000 	4.2046200000 	10.0079100000  -0.51638874 -0.81647984 -0.25826989  1.2737
   204      1  68.0136000000 	4.2046200000 	10.0079100000  -0.51638874 -0.81647984 -0.25826989  1.2737
   205      1  6.0099500000 	2.0963200000 	10.6743800000  -0.51638874 -0.81647984 -0.25826989  1.2737
   206      1  19.3435400000 	2.0963200000 	10.6743800000  -0.51638874 -0.81647984 -0.25826989  1.2737
   207      1  26.0111300000 	2.0963200000 	10.6743800000  -0.51638874 -0.81647984 -0.25826989  1.2737
   208      1  12.6767500000 	2.0963200000 	10.6743800000  -0.51638874 -0.81647984 -0.25826989  1.2737
   209      1  32.6779200000 	2.0963200000 	10.6743800000  -0.51638874 -0.81647984 -0.25826989  1.2737
   210      1  46.0123000000 	2.0963200000 	10.6743800000  -0.51638874 -0.81647984 -0.25826989  1.2737
   211      1  52.6791000000 	2.0963200000 	10.6743800000  -0.51638874 -0.81647984 -0.25826989  1.2737
   212      1  39.3447100000 	2.0963200000 	10.6743800000  -0.51638874 -0.81647984 -0.25826989  1.2737
   213      1  59.3458800000 	2.0963200000 	10.6743800000  -0.51638874 -0.81647984 -0.25826989  1.2737
   214      1  72.6802700000 	2.0963200000 	10.6743800000  -0.51638874 -0.81647984 -0.25826989  1.2737
   215      1  79.3470600000 	2.0963200000 	10.6743800000  -0.51638874 -0.81647984 -0.25826989  1.2737
   216      1  66.0134800000 	2.0963200000 	10.6743800000  -0.51638874 -0.81647984 -0.25826989  1.2737
   217      1  4.0098400000 	8.4212200000 	11.3412400000  -0.51638874 -0.81647984 -0.25826989  1.2737
   218      1  17.3434200000 	8.4212200000 	11.3412400000  -0.51638874 -0.81647984 -0.25826989  1.2737
   219      1  10.6766300000 	8.4212200000 	11.3412400000  -0.51638874 -0.81647984 -0.25826989  1.2737
   220      1  24.0110100000 	8.4212200000 	11.3412400000  -0.51638874 -0.81647984 -0.25826989  1.2737
   221      1  30.6778000000 	8.4212200000 	11.3412400000  -0.51638874 -0.81647984 -0.25826989  1.2737
   222      1  44.0121900000 	8.4212200000 	11.3412400000  -0.51638874 -0.81647984 -0.25826989  1.2737
   223      1  37.3445900000 	8.4212200000 	11.3412400000  -0.51638874 -0.81647984 -0.25826989  1.2737
   224      1  50.6789700000 	8.4212200000 	11.3412400000  -0.51638874 -0.81647984 -0.25826989  1.2737
   225      1  57.3457700000 	8.4212200000 	11.3412400000  -0.51638874 -0.81647984 -0.25826989  1.2737
   226      1  70.6801500000 	8.4212200000 	11.3412400000  -0.51638874 -0.81647984 -0.25826989  1.2737
   227      1  64.0133600000 	8.4212200000 	11.3412400000  -0.51638874 -0.81647984 -0.25826989  1.2737
   228      1  77.3469400000 	8.4212200000 	11.3412400000  -0.51638874 -0.81647984 -0.25826989  1.2737
   229      1  8.6765100000 	6.3129200000 	12.0077100000  -0.51638874 -0.81647984 -0.25826989  1.2737
   230      1  22.0108900000 	6.3129200000 	12.0077100000  -0.51638874 -0.81647984 -0.25826989  1.2737
   231      1  2.0097200000 	6.3129200000 	12.0077100000  -0.51638874 -0.81647984 -0.25826989  1.2737
   232      1  15.3433000000 	6.3129200000 	12.0077100000  -0.51638874 -0.81647984 -0.25826989  1.2737
   233      1  35.3444800000 	6.3129200000 	12.0077100000  -0.51638874 -0.81647984 -0.25826989  1.2737
   234      1  48.6788600000 	6.3129200000 	12.0077100000  -0.51638874 -0.81647984 -0.25826989  1.2737
   235      1  28.6776800000 	6.3129200000 	12.0077100000  -0.51638874 -0.81647984 -0.25826989  1.2737
   236      1  42.0120700000 	6.3129200000 	12.0077100000  -0.51638874 -0.81647984 -0.25826989  1.2737
   237      1  62.0132400000 	6.3129200000 	12.0077100000  -0.51638874 -0.81647984 -0.25826989  1.2737
   238      1  75.3468200000 	6.3129200000 	12.0077100000  -0.51638874 -0.81647984 -0.25826989  1.2737
   239      1  55.3456500000 	6.3129200000 	12.0077100000  -0.51638874 -0.81647984 -0.25826989  1.2737
   240      1  68.6800300000 	6.3129200000 	12.0077100000  -0.51638874 -0.81647984 -0.25826989  1.2737
   241      1  6.6763900000 	4.2046200000 	12.6745700000  -0.51638874 -0.81647984 -0.25826989  1.2737
   242      1  20.0107800000 	4.2046200000 	12.6745700000  -0.51638874 -0.81647984 -0.25826989  1.2737
   243      1  13.3431800000 	4.2046200000 	12.6745700000  -0.51638874 -0.81647984 -0.25826989  1.2737
   244      1  0.0096000000 	4.2046200000 	12.6745700000  -0.51638874 -0.81647984 -0.25826989  1.2737
   245      1  33.3443600000 	4.2046200000 	12.6745700000  -0.51638874 -0.81647984 -0.25826989  1.2737
   246      1  46.6787400000 	4.2046200000 	12.6745700000  -0.51638874 -0.81647984 -0.25826989  1.2737
   247      1  40.0119500000 	4.2046200000 	12.6745700000  -0.51638874 -0.81647984 -0.25826989  1.2737
   248      1  26.6775700000 	4.2046200000 	12.6745700000  -0.51638874 -0.81647984 -0.25826989  1.2737
   249      1  60.0131200000 	4.2046200000 	12.6745700000  -0.51638874 -0.81647984 -0.25826989  1.2737
   250      1  73.3467100000 	4.2046200000 	12.6745700000  -0.51638874 -0.81647984 -0.25826989  1.2737
   251      1  66.6799200000 	4.2046200000 	12.6745700000  -0.51638874 -0.81647984 -0.25826989  1.2737
   252      1  53.3455300000 	4.2046200000 	12.6745700000  -0.51638874 -0.81647984 -0.25826989  1.2737
   253      1  4.6762700000 	2.0963200000 	13.3410400000  -0.51638874 -0.81647984 -0.25826989  1.2737
   254      1  18.0106600000 	2.0963200000 	13.3410400000  -0.51638874 -0.81647984 -0.25826989  1.2737
   255      1  11.3430700000 	2.0963200000 	13.3410400000  -0.51638874 -0.81647984 -0.25826989  1.2737
   256      1  24.6774500000 	2.0963200000 	13.3410400000  -0.51638874 -0.81647984 -0.25826989  1.2737
   257      1  31.3442400000 	2.0963200000 	13.3410400000  -0.51638874 -0.81647984 -0.25826989  1.2737
   258      1  44.6786200000 	2.0963200000 	13.3410400000  -0.51638874 -0.81647984 -0.25826989  1.2737
   259      1  38.0118300000 	2.0963200000 	13.3410400000  -0.51638874 -0.81647984 -0.25826989  1.2737
   260      1  51.3454200000 	2.0963200000 	13.3410400000  -0.51638874 -0.81647984 -0.25826989  1.2737
   261      1  58.0130100000 	2.0963200000 	13.3410400000  -0.51638874 -0.81647984 -0.25826989  1.2737
   262      1  71.3465900000 	2.0963200000 	13.3410400000  -0.51638874 -0.81647984 -0.25826989  1.2737
   263      1  64.6798000000 	2.0963200000 	13.3410400000  -0.51638874 -0.81647984 -0.25826989  1.2737
   264      1  78.0141800000 	2.0963200000 	13.3410400000  -0.51638874 -0.81647984 -0.25826989  1.2737
   265      1  16.0105400000 	8.4212200000 	14.0079000000  -0.51638874 -0.81647984 -0.25826989  1.2737
   266      1  2.6761600000 	8.4212200000 	14.0079000000  -0.51638874 -0.81647984 -0.25826989  1.2737
   267      1  9.3429500000 	8.4212200000 	14.0079000000  -0.51638874 -0.81647984 -0.25826989  1.2737
   268      1  22.6773300000 	8.4212200000 	14.0079000000  -0.51638874 -0.81647984 -0.25826989  1.2737
   269      1  42.6785100000 	8.4212200000 	14.0079000000  -0.51638874 -0.81647984 -0.25826989  1.2737
   270      1  29.3441200000 	8.4212200000 	14.0079000000  -0.51638874 -0.81647984 -0.25826989  1.2737
   271      1  36.0117200000 	8.4212200000 	14.0079000000  -0.51638874 -0.81647984 -0.25826989  1.2737
   272      1  49.3453000000 	8.4212200000 	14.0079000000  -0.51638874 -0.81647984 -0.25826989  1.2737
   273      1  69.3464700000 	8.4212200000 	14.0079000000  -0.51638874 -0.81647984 -0.25826989  1.2737
   274      1  56.0128900000 	8.4212200000 	14.0079000000  -0.51638874 -0.81647984 -0.25826989  1.2737
   275      1  62.6796800000 	8.4212200000 	14.0079000000  -0.51638874 -0.81647984 -0.25826989  1.2737
   276      1  76.0140600000 	8.4212200000 	14.0079000000  -0.51638874 -0.81647984 -0.25826989  1.2737
   277      1  7.3428300000 	6.3129200000 	14.6747600000  -0.51638874 -0.81647984 -0.25826989  1.2737
   278      1  20.6772100000 	6.3129200000 	14.6747600000  -0.51638874 -0.81647984 -0.25826989  1.2737
   279      1  14.0104200000 	6.3129200000 	14.6747600000  -0.51638874 -0.81647984 -0.25826989  1.2737
   280      1  0.6760400000 	6.3129200000 	14.6747600000  -0.51638874 -0.81647984 -0.25826989  1.2737
   281      1  34.0116000000 	6.3129200000 	14.6747600000  -0.51638874 -0.81647984 -0.25826989  1.2737
   282      1  47.3451800000 	6.3129200000 	14.6747600000  -0.51638874 -0.81647984 -0.25826989  1.2737
   283      1  40.6783900000 	6.3129200000 	14.6747600000  -0.51638874 -0.81647984 -0.25826989  1.2737
   284      1  27.3440100000 	6.3129200000 	14.6747600000  -0.51638874 -0.81647984 -0.25826989  1.2737
   285      1  60.6795600000 	6.3129200000 	14.6747600000  -0.51638874 -0.81647984 -0.25826989  1.2737
   286      1  74.0139500000 	6.3129200000 	14.6747600000  -0.51638874 -0.81647984 -0.25826989  1.2737
   287      1  67.3463600000 	6.3129200000 	14.6747600000  -0.51638874 -0.81647984 -0.25826989  1.2737
   288      1  54.0127700000 	6.3129200000 	14.6747600000  -0.51638874 -0.81647984 -0.25826989  1.2737
   289      1  18.6771000000 	4.2046200000 	15.3412300000  -0.51638874 -0.81647984 -0.25826989  1.2737