 running on   32 total cores
 distrk:  each k-point on   32 cores,    1 groups
 distr:  one band on   32 cores,    1 groups
 using from now: INCAR     
 vasp.5.4.4.18Apr17-6-g9f103f2a35 (build Nov 22 2022 17:09:42) complex          
  
 POSCAR found type information on POSCAR  Ni O 
 POSCAR found :  2 types and      32 ions
 scaLAPACK will be used

 ----------------------------------------------------------------------------- 
|                                                                             |
|           W    W    AA    RRRRR   N    N  II  N    N   GGGG   !!!           |
|           W    W   A  A   R    R  NN   N  II  NN   N  G    G  !!!           |
|           W    W  A    A  R    R  N N  N  II  N N  N  G       !!!           |
|           W WW W  AAAAAA  RRRRR   N  N N  II  N  N N  G  GGG   !            |
|           WW  WW  A    A  R   R   N   NN  II  N   NN  G    G                |
|           W    W  A    A  R    R  N    N  II  N    N   GGGG   !!!           |
|                                                                             |
|      For optimal performance we recommend to set                            |
|        NCORE= 4 - approx SQRT( number of cores)                             |
|      NCORE specifies how many cores store one orbital (NPAR=cpu/NCORE).     |
|      This setting can  greatly improve the performance of VASP for DFT.     |
|      The default,   NCORE=1            might be grossly inefficient         |
|      on modern multi-core architectures or massively parallel machines.     |
|      Do your own testing !!!!                                               |
|      Unfortunately you need to use the default for GW and RPA calculations. |
|      (for HF NCORE is supported but not extensively tested yet)             |
|                                                                             |
 ----------------------------------------------------------------------------- 


 ----------------------------------------------------------------------------- 
|                                                                             |
|  ADVICE TO THIS USER RUNNING 'VASP/VAMP'   (HEAR YOUR MASTER'S VOICE ...):  |
|                                                                             |
|      You have a (more or less) 'large supercell' and for larger cells       |
|      it might be more efficient to use real space projection opertators     |
|      So try LREAL= Auto  in the INCAR   file.                               |
|      Mind:          For very  accurate calculation you might also keep the  |
|      reciprocal projection scheme          (i.e. LREAL=.FALSE.)             |
|                                                                             |
 ----------------------------------------------------------------------------- 

 LDA part: xc-table for Pade appr. of Perdew
 POSCAR, INCAR and KPOINTS ok, starting setup
 FFT: planning ...
 WAVECAR not read
 entering main loop
 -------------------------------------------------------------------------------
 SASC (Self-Adaptive Spin Constraint)
 Type of SASC calculation = 1
 --------------------------------------
 The DEFINITION of atomic spins which are constrained (MW):
 \vec{M}_{I}=
 \int_{\Omega_{I}} \vec{m}(\mathbf{r}) F_{I}(|\mathbf{r}|) d\mathbf{r}
 -------------------------------------------------------------------------------
 -------------------------------------------------------------------------------
 SASC(L) (Self-Adaptive Spin Constraint (Linear Lagragian))
 Initial trial step size (alpha_trial) = 1.000E-02
 Maximum number of steps in SC iteration = 100
 Number of INTERMEDIATE normal electronic steps = 0
 Convergence criterion of SC iteration (epsilon) = 1.000E-06
 Restriction of SC step size = 3.000E+00
 SASC electronic step begins from: 1
 Constrained atoms: 16/32
 Inner optimization algorithm: 1
 Inner diagonalization algorithm: 1
 Restriction of trial-step update: T
 Debug mode: F
 --------------------------------------
 The DEFINITION of atomic spins which are constrained (MW):
 \vec{M}_{I}=
 \int_{\Omega_{I}} \vec{m}(\mathbf{r}) F_{I}(|\mathbf{r}|) d\mathbf{r}
 -------------------------------------------------------------------------------
       N       E                     dE             d eps       ncg     rms          rms(c)
DAV:   1     0.364970132736E+04    0.36497E+04   -0.12127E+05  4896   0.253E+03
 ===============================================================================
 Inner optimization for lambda begins ...
 Covergence criterion this loop:  1.000000000000000E-006
 initial lambda:
  0.000000000000000E+000  0.000000000000000E+000  0.000000000000000E+000
  0.000000000000000E+000  0.000000000000000E+000  0.000000000000000E+000
  0.000000000000000E+000  0.000000000000000E+000  0.000000000000000E+000
  0.000000000000000E+000  0.000000000000000E+000  0.000000000000000E+000
  0.000000000000000E+000  0.000000000000000E+000  0.000000000000000E+000
  0.000000000000000E+000  0.000000000000000E+000  0.000000000000000E+000
  0.000000000000000E+000  0.000000000000000E+000  0.000000000000000E+000
  0.000000000000000E+000  0.000000000000000E+000  0.000000000000000E+000
  0.000000000000000E+000  0.000000000000000E+000  0.000000000000000E+000
  0.000000000000000E+000  0.000000000000000E+000  0.000000000000000E+000
  0.000000000000000E+000  0.000000000000000E+000  0.000000000000000E+000
  0.000000000000000E+000  0.000000000000000E+000  0.000000000000000E+000
  0.000000000000000E+000  0.000000000000000E+000  0.000000000000000E+000
  0.000000000000000E+000  0.000000000000000E+000  0.000000000000000E+000
  0.000000000000000E+000  0.000000000000000E+000  0.000000000000000E+000
  0.000000000000000E+000  0.000000000000000E+000  0.000000000000000E+000
  0.000000000000000E+000  0.000000000000000E+000  0.000000000000000E+000
  0.000000000000000E+000  0.000000000000000E+000  0.000000000000000E+000
  0.000000000000000E+000  0.000000000000000E+000  0.000000000000000E+000
  0.000000000000000E+000  0.000000000000000E+000  0.000000000000000E+000
  0.000000000000000E+000  0.000000000000000E+000  0.000000000000000E+000
  0.000000000000000E+000  0.000000000000000E+000  0.000000000000000E+000
  0.000000000000000E+000  0.000000000000000E+000  0.000000000000000E+000
  0.000000000000000E+000  0.000000000000000E+000  0.000000000000000E+000
  0.000000000000000E+000  0.000000000000000E+000  0.000000000000000E+000
  0.000000000000000E+000  0.000000000000000E+000  0.000000000000000E+000
  0.000000000000000E+000  0.000000000000000E+000  0.000000000000000E+000
  0.000000000000000E+000  0.000000000000000E+000  0.000000000000000E+000
  0.000000000000000E+000  0.000000000000000E+000  0.000000000000000E+000
  0.000000000000000E+000  0.000000000000000E+000  0.000000000000000E+000
  0.000000000000000E+000  0.000000000000000E+000  0.000000000000000E+000
  0.000000000000000E+000  0.000000000000000E+000  0.000000000000000E+000
 initial spin: 
  0.137915779090909      -4.214063902403701E-004  2.266292077267820E-002
  1.861992631334883E-002 -6.077900035712642E-003  5.559348432529997E-004
  1.700074960402400E-002 -1.137958911728316E-002  1.175519320189651E-002
  1.597466000319705E-002 -1.546764513371991E-002  2.013687527453094E-002
  1.435010890815799E-003 -6.352558138062601E-003  1.693855703363303E-002
  1.388342400798842E-002 -9.194272602645862E-003  2.320133675391542E-002
  2.095826651708135E-002 -1.113377692641311E-002  3.171626930806040E-002
  2.169924788117441E-002 -1.121662833272312E-002  2.070284220494716E-002
 -1.577258766078585E-002  2.105228561096432E-002 -2.195721072746014E-002
 -1.504141210606244E-002 -3.408231991433240E-003 -2.578115023613159E-002
  5.497394205938500E-003  1.786993907153889E-002 -1.566590486809041E-002
 -1.359255230711055E-002 -2.723105134805816E-003 -1.672235935954254E-002
 -1.235926093799490E-002 -1.237159296904167E-002 -2.685918122494305E-002
 -3.097385172337719E-003  1.964731119689023E-003 -2.633360948915170E-002
 -7.827192737727747E-003  1.930685329002439E-003 -2.287523966567365E-002
 -1.735171058117731E-002  9.975808712282710E-005 -1.176317301540361E-002
  7.061417727259045E-004 -6.172932726159297E-003 -4.086477671485823E-004
  1.143372141373912E-002  1.568467457249012E-003 -3.244008159293500E-003
  9.577393845996507E-003  3.466095219929299E-003  4.770939392540117E-003
  4.870549064899414E-003 -9.865902742356733E-003 -7.427590366499696E-003
  2.547080085390506E-003  3.507559291476321E-003 -9.835426858704834E-003
  3.510214032605113E-004 -4.840876127091942E-003 -4.522041024668036E-003
 -5.578368613980280E-003  2.681736549206676E-004  4.445724752509204E-003
  3.860123627299168E-003  2.487711393339958E-003 -4.052233106170795E-003
 -4.294935231068456E-004 -1.015704519668319E-003 -7.124804597070138E-003
 -5.215107508821308E-003 -2.459720661863552E-003 -1.721041896285609E-003
 -2.791056178767572E-003  4.914244428010204E-003 -2.480208679216135E-003
  3.086664667233377E-003  2.885221524177650E-003 -5.042018726760569E-003
  3.098228735178824E-003  8.271866929285174E-003 -8.492883813059725E-003
  1.447415762604007E-002 -3.690122351004049E-003 -1.189250556696701E-003
  1.301234019731293E-002  8.561508918631421E-004 -7.979449250304295E-004
  1.980887920809432E-003  1.040961221835492E-003 -6.959042731882386E-003
 target spin: 
  0.665340000000000      -0.216640000000000        1.06429000000000     
  0.708750000000000      -0.430690000000000       0.966690000000000     
  0.708750000000000      -0.430690000000000       0.966690000000000     
  0.708750000000000      -0.430690000000000       0.966690000000000     
  0.121150000000000      -0.353300000000000        1.21771000000000     
  0.708750000000000      -0.430690000000000       0.966690000000000     
  0.708750000000000      -0.430690000000000       0.966690000000000     
  0.708750000000000      -0.430690000000000       0.966690000000000     
 -0.708750000000000       0.430690000000000      -0.966690000000000     
 -0.614130000000000       1.590000000000000E-002  -1.11575000000000     
 -0.691910000000000       0.841900000000000      -0.659380000000000     
 -0.708750000000000       0.430690000000000      -0.966690000000000     
 -0.708750000000000       0.430690000000000      -0.966690000000000     
 -0.708750000000000       0.430690000000000      -0.966690000000000     
 -0.708750000000000       0.430690000000000      -0.966690000000000     
 -0.708750000000000       0.430690000000000      -0.966690000000000     
  0.000000000000000E+000  0.000000000000000E+000  0.000000000000000E+000
  0.000000000000000E+000  0.000000000000000E+000  0.000000000000000E+000
  0.000000000000000E+000  0.000000000000000E+000  0.000000000000000E+000
  0.000000000000000E+000  0.000000000000000E+000  0.000000000000000E+000
  0.000000000000000E+000  0.000000000000000E+000  0.000000000000000E+000
  0.000000000000000E+000  0.000000000000000E+000  0.000000000000000E+000
  0.000000000000000E+000  0.000000000000000E+000  0.000000000000000E+000
  0.000000000000000E+000  0.000000000000000E+000  0.000000000000000E+000
  0.000000000000000E+000  0.000000000000000E+000  0.000000000000000E+000
  0.000000000000000E+000  0.000000000000000E+000  0.000000000000000E+000
  0.000000000000000E+000  0.000000000000000E+000  0.000000000000000E+000
  0.000000000000000E+000  0.000000000000000E+000  0.000000000000000E+000
  0.000000000000000E+000  0.000000000000000E+000  0.000000000000000E+000
  0.000000000000000E+000  0.000000000000000E+000  0.000000000000000E+000
  0.000000000000000E+000  0.000000000000000E+000  0.000000000000000E+000
  0.000000000000000E+000  0.000000000000000E+000  0.000000000000000E+000
Step (Outer -- Inner) =  1 -- 1       RMS =  7.190964347822E-01
 -------------------------------------------------------------------------------
 restriction of this step =    3.00000000000000     
 alpha_trial before restrict =   1.000000000000000E-002
 boundary before =   1.200771442966367E-002
 trial need restriction: false
 delta delta lambda:
 -5.274242209090909E-003  2.162185936097596E-003 -1.041627079227322E-002
 -6.901300736866511E-003  4.246120999642874E-003 -9.661340651567471E-003
 -6.917492503959760E-003  4.193104108827169E-003 -9.549348067981035E-003
 -6.927753399968030E-003  4.152223548662801E-003 -9.465531247254692E-003
 -1.197149891091842E-003  3.469474418619374E-003 -1.200771442966367E-002
 -6.948665759920116E-003  4.214957273973542E-003 -9.434886632460846E-003
 -6.877917334829187E-003  4.195562230735870E-003 -9.349737306919396E-003
 -6.870507521188256E-003  4.194733716672769E-003 -9.459871577950529E-003
  6.929774123392142E-003 -4.096377143890357E-003  9.447327892725399E-003
  5.990885878939375E-003 -1.930823199143324E-004  1.089968849763868E-002
  6.974073942059386E-003 -8.240300609284611E-003  6.437140951319096E-003
  6.951574476928894E-003 -4.334131051348058E-003  9.499676406404575E-003
  6.963907390620051E-003 -4.430615929690417E-003  9.398308187750571E-003
  7.056526148276623E-003 -4.287252688803110E-003  9.403563905108483E-003
  7.009228072622723E-003 -4.287593146709976E-003  9.438147603343265E-003
  6.913982894188227E-003 -4.305902419128772E-003  9.549268269845965E-003
  0.000000000000000E+000  0.000000000000000E+000  0.000000000000000E+000
  0.000000000000000E+000  0.000000000000000E+000  0.000000000000000E+000
  0.000000000000000E+000  0.000000000000000E+000  0.000000000000000E+000
  0.000000000000000E+000  0.000000000000000E+000  0.000000000000000E+000
  0.000000000000000E+000  0.000000000000000E+000  0.000000000000000E+000
  0.000000000000000E+000  0.000000000000000E+000  0.000000000000000E+000
  0.000000000000000E+000  0.000000000000000E+000  0.000000000000000E+000
  0.000000000000000E+000  0.000000000000000E+000  0.000000000000000E+000
  0.000000000000000E+000  0.000000000000000E+000  0.000000000000000E+000
  0.000000000000000E+000  0.000000000000000E+000  0.000000000000000E+000
  0.000000000000000E+000  0.000000000000000E+000  0.000000000000000E+000
  0.000000000000000E+000  0.000000000000000E+000  0.000000000000000E+000
  0.000000000000000E+000  0.000000000000000E+000  0.000000000000000E+000
  0.000000000000000E+000  0.000000000000000E+000  0.000000000000000E+000
  0.000000000000000E+000  0.000000000000000E+000  0.000000000000000E+000
  0.000000000000000E+000  0.000000000000000E+000  0.000000000000000E+000
 trial delta lambda:
 -5.274242209090909E-003  2.162185936097596E-003 -1.041627079227322E-002
 -6.901300736866511E-003  4.246120999642874E-003 -9.661340651567471E-003
 -6.917492503959760E-003  4.193104108827169E-003 -9.549348067981035E-003
 -6.927753399968030E-003  4.152223548662801E-003 -9.465531247254692E-003
 -1.197149891091842E-003  3.469474418619374E-003 -1.200771442966367E-002
 -6.948665759920116E-003  4.214957273973542E-003 -9.434886632460846E-003
 -6.877917334829187E-003  4.195562230735870E-003 -9.349737306919396E-003
 -6.870507521188256E-003  4.194733716672769E-003 -9.459871577950529E-003
  6.929774123392142E-003 -4.096377143890357E-003  9.447327892725399E-003
  5.990885878939375E-003 -1.930823199143324E-004  1.089968849763868E-002
  6.974073942059386E-003 -8.240300609284611E-003  6.437140951319096E-003
  6.951574476928894E-003 -4.334131051348058E-003  9.499676406404575E-003
  6.963907390620051E-003 -4.430615929690417E-003  9.398308187750571E-003
  7.056526148276623E-003 -4.287252688803110E-003  9.403563905108483E-003
  7.009228072622723E-003 -4.287593146709976E-003  9.438147603343265E-003
  6.913982894188227E-003 -4.305902419128772E-003  9.549268269845965E-003
  0.000000000000000E+000  0.000000000000000E+000  0.000000000000000E+000
  0.000000000000000E+000  0.000000000000000E+000  0.000000000000000E+000
  0.000000000000000E+000  0.000000000000000E+000  0.000000000000000E+000
  0.000000000000000E+000  0.000000000000000E+000  0.000000000000000E+000
  0.000000000000000E+000  0.000000000000000E+000  0.000000000000000E+000
  0.000000000000000E+000  0.000000000000000E+000  0.000000000000000E+000
  0.000000000000000E+000  0.000000000000000E+000  0.000000000000000E+000
  0.000000000000000E+000  0.000000000000000E+000  0.000000000000000E+000
  0.000000000000000E+000  0.000000000000000E+000  0.000000000000000E+000
  0.000000000000000E+000  0.000000000000000E+000  0.000000000000000E+000
  0.000000000000000E+000  0.000000000000000E+000  0.000000000000000E+000
  0.000000000000000E+000  0.000000000000000E+000  0.000000000000000E+000
  0.000000000000000E+000  0.000000000000000E+000  0.000000000000000E+000
  0.000000000000000E+000  0.000000000000000E+000  0.000000000000000E+000
  0.000000000000000E+000  0.000000000000000E+000  0.000000000000000E+000
  0.000000000000000E+000  0.000000000000000E+000  0.000000000000000E+000
       N       E                     dE             d eps       ncg     rms          rms(c)
DIA:   1     0.364970129047E+04    0.36497E+04    0.00000E+00     0   0.000E+00
 current spin(trial):
  0.137831940093035      -3.967279050494664E-004  2.254103862821362E-002
  1.853985610065283E-002 -6.028372107512826E-003  4.449353105002668E-004
  1.691978966683669E-002 -1.132952385240020E-002  1.164263965864312E-002
  1.588964912000434E-002 -1.542026400424728E-002  2.002176218884853E-002
  1.422060834385364E-003 -6.313296869626096E-003  1.679583581183062E-002
  1.380287164905260E-002 -9.144925978491062E-003  2.309154929432011E-002
  2.087704977178304E-002 -1.108456886398791E-002  3.160545754334743E-002
  2.162152893798066E-002 -1.116957988463004E-002  2.059630921840557E-002
 -1.569234725443201E-002  2.100418836904842E-002 -2.184774347501945E-002
 -1.497149656485480E-002 -3.411131258614717E-003 -2.565542503503382E-002
  5.578511403877291E-003  1.777481501037100E-002 -1.559201550627723E-002
 -1.350878345399168E-002 -2.775098559261761E-003 -1.661016965580270E-002
 -1.227471109910519E-002 -1.242534653651870E-002 -2.674565025734575E-002
 -3.014082893222956E-003  1.912885410768784E-003 -2.622378415685531E-002
 -7.743199815513807E-003  1.880175017787509E-003 -2.276506297978263E-002
 -1.726776069189808E-002  4.895333417518082E-005 -1.165036851335242E-002
  7.060751591375083E-004 -6.172306514082907E-003 -4.087081022139376E-004
  1.143342995007273E-002  1.568133850395545E-003 -3.244097782784679E-003
  9.577559024919604E-003  3.466765066949260E-003  4.770648670262296E-003
  4.870626392407667E-003 -9.865257985437709E-003 -7.427655091052266E-003
  2.547458513395360E-003  3.507620213916620E-003 -9.835649734757927E-003
  3.511940770655215E-004 -4.841389080961695E-003 -4.522270160516076E-003
 -5.579022184397289E-003  2.682058863417536E-004  4.445545296253137E-003
  3.859874615770022E-003  2.487659119470229E-003 -4.052485236920197E-003
 -4.291999361961001E-004 -1.015679491597963E-003 -7.125297386398314E-003
 -5.215837318734410E-003 -2.460471980973850E-003 -1.720952966081012E-003
 -2.790769535577015E-003  4.914602160622632E-003 -2.480007249089683E-003
  3.087114011364529E-003  2.885479254811673E-003 -5.042811273017539E-003
  3.098194311973333E-003  8.271778336659239E-003 -8.492936882638179E-003
  1.447342875403775E-002 -3.690387973805099E-003 -1.189418512750475E-003
  1.301230439278730E-002  8.558621925999804E-004 -7.979705427339967E-004
  1.980876448924390E-003  1.040863405437336E-003 -6.958723048920199E-003
 cosine between target and trial:  -0.9991106    
 alpha_opt before restrict =   -84.6667237173387     
 boundary before =    101.665384009304     
 restriction needed: true
 alpha_opt after restrict =   -2.49839385969144     
 boundary after =    3.00000000000000     
 delta delta lambda:
   1.32298767718090      -0.542361392561840        2.61281096962214     
   1.73111803922400       -1.06509438430111        2.42344475667791     
   1.73517957213942       -1.05179565996290        2.39535260577799     
   1.73775340899363       -1.04154120535320        2.37432804593311     
  0.300292343594505      -0.870280832802136        3.01200771442966     
   1.74299905252318       -1.05727729448970        2.36664116957496     
   1.72525256101508       -1.05241225375312        2.34528236504046     
   1.72339388791125       -1.05220442979426        2.37290837796007     
  -1.73826028601655        1.02753272747149       -2.36976192766040     
  -1.50275013528437       4.843265056880894E-002  -2.73407117000263     
  -1.74937242532958        2.06699194503411       -1.61468848362571     
  -1.74372867331162        1.08717077162995       -2.38289299668809     
  -1.74682225380912        1.11137297926865       -2.35746585496413     
  -1.77005468610892        1.07541183195393       -2.35878419587902     
  -1.75819046585437        1.07549723220624       -2.36745914950877     
  -1.73429922377934        1.08008991885731       -2.39533258926279     
  0.000000000000000E+000  0.000000000000000E+000  0.000000000000000E+000
  0.000000000000000E+000  0.000000000000000E+000  0.000000000000000E+000
  0.000000000000000E+000  0.000000000000000E+000  0.000000000000000E+000
  0.000000000000000E+000  0.000000000000000E+000  0.000000000000000E+000
  0.000000000000000E+000  0.000000000000000E+000  0.000000000000000E+000
  0.000000000000000E+000  0.000000000000000E+000  0.000000000000000E+000
  0.000000000000000E+000  0.000000000000000E+000  0.000000000000000E+000
  0.000000000000000E+000  0.000000000000000E+000  0.000000000000000E+000
  0.000000000000000E+000  0.000000000000000E+000  0.000000000000000E+000
  0.000000000000000E+000  0.000000000000000E+000  0.000000000000000E+000
  0.000000000000000E+000  0.000000000000000E+000  0.000000000000000E+000
  0.000000000000000E+000  0.000000000000000E+000  0.000000000000000E+000
  0.000000000000000E+000  0.000000000000000E+000  0.000000000000000E+000
  0.000000000000000E+000  0.000000000000000E+000  0.000000000000000E+000
  0.000000000000000E+000  0.000000000000000E+000  0.000000000000000E+000
  0.000000000000000E+000  0.000000000000000E+000  0.000000000000000E+000
 optimal delta lambda: 
   1.31771343497181      -0.540199206625742        2.60239469882987     
   1.72421673848713       -1.06084826330146        2.41378341602635     
   1.72826207963546       -1.04760255585407        2.38580325771001     
   1.73082565559366       -1.03738898180453        2.36486251468586     
  0.299095193703413      -0.866811358383517        3.00000000000000     
   1.73605038676326       -1.05306233721573        2.35720628294250     
   1.71837464368025       -1.04821669152238        2.33593262773354     
   1.71652338039006       -1.04800969607759        2.36344850638212     
  -1.73133051189315        1.02343635032760       -2.36031459976768     
  -1.49675924940543       4.823956824889460E-002  -2.72317148150499     
  -1.74239835138752        2.05875164442483       -1.60825134267439     
  -1.73677709883469        1.08283664057860       -2.37339332028168     
  -1.73985834641850        1.10694236333896       -2.34806754677638     
  -1.76299815996064        1.07112457926513       -2.34938063197391     
  -1.75118123778175        1.07120963905953       -2.35802100190543     
  -1.72738524088515        1.07578401643818       -2.38578332099294     
  0.000000000000000E+000  0.000000000000000E+000  0.000000000000000E+000
  0.000000000000000E+000  0.000000000000000E+000  0.000000000000000E+000
  0.000000000000000E+000  0.000000000000000E+000  0.000000000000000E+000
  0.000000000000000E+000  0.000000000000000E+000  0.000000000000000E+000
  0.000000000000000E+000  0.000000000000000E+000  0.000000000000000E+000
  0.000000000000000E+000  0.000000000000000E+000  0.000000000000000E+000
  0.000000000000000E+000  0.000000000000000E+000  0.000000000000000E+000
  0.000000000000000E+000  0.000000000000000E+000  0.000000000000000E+000
  0.000000000000000E+000  0.000000000000000E+000  0.000000000000000E+000
  0.000000000000000E+000  0.000000000000000E+000  0.000000000000000E+000
  0.000000000000000E+000  0.000000000000000E+000  0.000000000000000E+000
  0.000000000000000E+000  0.000000000000000E+000  0.000000000000000E+000
  0.000000000000000E+000  0.000000000000000E+000  0.000000000000000E+000
  0.000000000000000E+000  0.000000000000000E+000  0.000000000000000E+000
  0.000000000000000E+000  0.000000000000000E+000  0.000000000000000E+000
  0.000000000000000E+000  0.000000000000000E+000  0.000000000000000E+000
       N       E                     dE             d eps       ncg     rms          rms(c)
DIA:   1     0.364877946630E+04    0.36488E+04    0.00000E+00     0   0.000E+00
 diagonal gradient:
  1.658476135133210E-002  1.169108377734897E-002  1.200559599717909E-002
  1.194941806814219E-002  1.200342467343049E-002  1.185180067875379E-002
  1.195503405309420E-002  1.223411315125675E-002  1.205430167282148E-002
  1.251829246750353E-002  1.162588415824124E-002  1.241894715606064E-002
  1.101860944062214E-002  1.162058995078820E-002  1.219261581709205E-002
  1.192678157953359E-002  1.201751575908124E-002  1.196915854153499E-002
  1.211549800174650E-002  1.203070642185249E-002  1.218339590314058E-002
  1.162788290189614E-002  1.151101617430897E-002  1.154824054455914E-002
  1.188891025603110E-002  1.202823184334246E-002  1.186180645668767E-002
  1.200558124362696E-002  1.473444804046155E-002  1.185810003662422E-002
  1.195783397051728E-002  1.189585359315355E-002  1.180103122566372E-002
  1.244784504255349E-002  1.231294116579187E-002  1.215457563649063E-002
  1.247926767467163E-002  1.247595993226876E-002  1.244440066625793E-002
  1.210993846287032E-002  1.244865704095646E-002  1.196629369552851E-002
  1.228783752666870E-002  1.202233581037296E-002  1.192971021005760E-002
  1.241438797382580E-002  1.206139075704868E-002  1.212420920874615E-002
  0.000000000000000E+000  0.000000000000000E+000  0.000000000000000E+000
  0.000000000000000E+000  0.000000000000000E+000  0.000000000000000E+000
  0.000000000000000E+000  0.000000000000000E+000  0.000000000000000E+000
  0.000000000000000E+000  0.000000000000000E+000  0.000000000000000E+000
  0.000000000000000E+000  0.000000000000000E+000  0.000000000000000E+000
  0.000000000000000E+000  0.000000000000000E+000  0.000000000000000E+000
  0.000000000000000E+000  0.000000000000000E+000  0.000000000000000E+000
  0.000000000000000E+000  0.000000000000000E+000  0.000000000000000E+000
  0.000000000000000E+000  0.000000000000000E+000  0.000000000000000E+000
  0.000000000000000E+000  0.000000000000000E+000  0.000000000000000E+000
  0.000000000000000E+000  0.000000000000000E+000  0.000000000000000E+000
  0.000000000000000E+000  0.000000000000000E+000  0.000000000000000E+000
  0.000000000000000E+000  0.000000000000000E+000  0.000000000000000E+000
  0.000000000000000E+000  0.000000000000000E+000  0.000000000000000E+000
  0.000000000000000E+000  0.000000000000000E+000  0.000000000000000E+000
  0.000000000000000E+000  0.000000000000000E+000  0.000000000000000E+000
 maximum gradient appears at: 
 ( 1 , 1 ) ( 1 , 1 ) 
 maximum gradient: 
 0.16584761E-01 0.00000000E+00 
 current spin:
  0.159769741939361      -6.736920571359365E-003  5.390622015203016E-002
  3.922331296162013E-002 -1.881171225419130E-002  2.916361477167868E-002
  3.766218161873734E-002 -2.419607732314767E-002  4.051438540233323E-002
  3.764164177017704E-002 -2.752820926321525E-002  4.950597787576326E-002
  4.730624015800935E-003 -1.642541749852316E-002  5.351640448490919E-002
  3.458891778197858E-002 -2.184946583543078E-002  5.141511246955660E-002
  4.177723107884133E-002 -2.374456420860440E-002  6.017586131480161E-002
  4.165878074671693E-002 -2.328028489510488E-002  4.799651407132687E-002
 -3.635622074021194E-002  3.336241530960897E-002 -4.995480568679858E-002
 -3.301087687694941E-002 -2.697448579575604E-003 -5.807279008069993E-002
 -1.533791599045654E-002  4.236054721828078E-002 -3.464492918170654E-002
 -3.521168450686035E-002  1.060979871280219E-002 -4.556994798604788E-002
 -3.407141895896289E-002  1.438575603306094E-003 -5.607947456846565E-002
 -2.444718439961467E-002  1.529879365509941E-002 -5.444698813393786E-002
 -2.934542326734044E-002  1.480912733308452E-002 -5.100574688763510E-002
 -3.879614114178611E-002  1.307520947957103E-002 -4.068890912585925E-002
  7.533865786496954E-004 -6.351728945417085E-003 -4.092026764001815E-004
  1.151004229963550E-002  1.657310121642092E-003 -3.189478265529717E-003
  9.538378934001003E-003  3.268984562845085E-003  4.834785956578994E-003
  4.794398806393623E-003 -1.000071361587395E-002 -7.385099453795886E-003
  2.463507912313724E-003  3.496641554323640E-003 -9.768890801561198E-003
  3.002542435791631E-004 -4.676259015337971E-003 -4.443471401502245E-003
 -5.457096475009946E-003  2.326516266387346E-004  4.474635387929966E-003
  3.885513617877501E-003  2.500029790357277E-003 -3.998248922861661E-003
 -4.890334288764806E-004 -1.002215910682016E-003 -7.011914829987113E-003
 -5.016987641192927E-003 -2.289878068176964E-003 -1.801788388652025E-003
 -2.853152406551308E-003  4.827686806012680E-003 -2.511993652099374E-003
  2.973453167554508E-003  2.828063957542698E-003 -4.848407840518197E-003
  3.130091835817444E-003  8.327897360719361E-003 -8.512395776472606E-003
  1.466381940046781E-002 -3.628032834937454E-003 -1.141342456686756E-003
  1.297313735238350E-002  9.208545792300275E-004 -8.076333486699168E-004
  1.984344890696695E-003  1.065656000057424E-003 -7.028047884307095E-003
 target spin: 
  0.665340000000000      -0.216640000000000        1.06429000000000     
  0.708750000000000      -0.430690000000000       0.966690000000000     
  0.708750000000000      -0.430690000000000       0.966690000000000     
  0.708750000000000      -0.430690000000000       0.966690000000000     
  0.121150000000000      -0.353300000000000        1.21771000000000     
  0.708750000000000      -0.430690000000000       0.966690000000000     
  0.708750000000000      -0.430690000000000       0.966690000000000     
  0.708750000000000      -0.430690000000000       0.966690000000000     
 -0.708750000000000       0.430690000000000      -0.966690000000000     
 -0.614130000000000       1.590000000000000E-002  -1.11575000000000     
 -0.691910000000000       0.841900000000000      -0.659380000000000     
 -0.708750000000000       0.430690000000000      -0.966690000000000     
 -0.708750000000000       0.430690000000000      -0.966690000000000     
 -0.708750000000000       0.430690000000000      -0.966690000000000     
 -0.708750000000000       0.430690000000000      -0.966690000000000     
 -0.708750000000000       0.430690000000000      -0.966690000000000     
  0.000000000000000E+000  0.000000000000000E+000  0.000000000000000E+000
  0.000000000000000E+000  0.000000000000000E+000  0.000000000000000E+000
  0.000000000000000E+000  0.000000000000000E+000  0.000000000000000E+000
  0.000000000000000E+000  0.000000000000000E+000  0.000000000000000E+000
  0.000000000000000E+000  0.000000000000000E+000  0.000000000000000E+000
  0.000000000000000E+000  0.000000000000000E+000  0.000000000000000E+000
  0.000000000000000E+000  0.000000000000000E+000  0.000000000000000E+000
  0.000000000000000E+000  0.000000000000000E+000  0.000000000000000E+000
  0.000000000000000E+000  0.000000000000000E+000  0.000000000000000E+000
  0.000000000000000E+000  0.000000000000000E+000  0.000000000000000E+000
  0.000000000000000E+000  0.000000000000000E+000  0.000000000000000E+000
  0.000000000000000E+000  0.000000000000000E+000  0.000000000000000E+000
  0.000000000000000E+000  0.000000000000000E+000  0.000000000000000E+000
  0.000000000000000E+000  0.000000000000000E+000  0.000000000000000E+000
  0.000000000000000E+000  0.000000000000000E+000  0.000000000000000E+000
  0.000000000000000E+000  0.000000000000000E+000  0.000000000000000E+000
Step (Outer -- Inner) =  1 -- 2       RMS =  6.973511980817E-01
 -------------------------------------------------------------------------------
 restriction of this step =    3.00000000000000     
 alpha_trial before restrict =   1.624504779289256E-002
 boundary before =   3.725706209595158E-002
 trial need restriction: false
 delta delta lambda:
 -1.627069076098929E-002  6.713146353953985E-003 -3.232710008564403E-002
 -2.141989532912340E-002  1.317795697145805E-002 -2.999019025808176E-002
 -2.146999281403664E-002  1.300949160880517E-002 -2.963470074918782E-002
 -2.148600247967336E-002  1.289290604522620E-002 -2.936058147936244E-002
 -3.720173682102649E-003  1.077300312201601E-002 -3.725706209595158E-002
 -2.156754280316406E-002  1.308099840794807E-002 -2.928275045237779E-002
 -2.134268301774827E-002  1.302058183534032E-002 -2.901034552565941E-002
 -2.133328697057970E-002  1.302685831980872E-002 -2.937645628035191E-002
  2.150997134841105E-002 -1.271281022900756E-002  2.932548023323881E-002
  1.859283183099004E-002 -5.970962793546985E-004  3.383392132089686E-002
  2.164552677222411E-002 -2.557760435528743E-002  1.998313729930213E-002
  2.156186969511792E-002 -1.344565404152335E-002  2.947668744355681E-002
  2.159923486528584E-002 -1.374204493468469E-002  2.915109526574124E-002
  2.189707851877980E-002 -1.329786308309690E-002  2.918564446246693E-002
  2.174524716972518E-002 -1.330633786751275E-002  2.929438253578225E-002
  2.144620981152339E-002 -1.336247727793096E-002  2.963174369204991E-002
  0.000000000000000E+000  0.000000000000000E+000  0.000000000000000E+000
  0.000000000000000E+000  0.000000000000000E+000  0.000000000000000E+000
  0.000000000000000E+000  0.000000000000000E+000  0.000000000000000E+000
  0.000000000000000E+000  0.000000000000000E+000  0.000000000000000E+000
  0.000000000000000E+000  0.000000000000000E+000  0.000000000000000E+000
  0.000000000000000E+000  0.000000000000000E+000  0.000000000000000E+000
  0.000000000000000E+000  0.000000000000000E+000  0.000000000000000E+000
  0.000000000000000E+000  0.000000000000000E+000  0.000000000000000E+000
  0.000000000000000E+000  0.000000000000000E+000  0.000000000000000E+000
  0.000000000000000E+000  0.000000000000000E+000  0.000000000000000E+000
  0.000000000000000E+000  0.000000000000000E+000  0.000000000000000E+000
  0.000000000000000E+000  0.000000000000000E+000  0.000000000000000E+000
  0.000000000000000E+000  0.000000000000000E+000  0.000000000000000E+000
  0.000000000000000E+000  0.000000000000000E+000  0.000000000000000E+000
  0.000000000000000E+000  0.000000000000000E+000  0.000000000000000E+000
  0.000000000000000E+000  0.000000000000000E+000  0.000000000000000E+000
 trial delta lambda:
   1.30144274421082      -0.533486060271788        2.57006759874422     
   1.70279684315801       -1.04767030633000        2.38379322576826     
   1.70679208682143       -1.03459306424527        2.35616855696082     
   1.70933965311399       -1.02449607575931        2.33550193320649     
  0.295375020021311      -0.856038355261501        2.96274293790405     
   1.71448284396009       -1.03998133880778        2.32792353249012     
   1.69703196066251       -1.03519610968704        2.30692228220788     
   1.69519009341948       -1.03498283775778        2.33407205010176     
  -1.70982054054474        1.01072354009859       -2.33098911953444     
  -1.47816641757444       4.764247196953991E-002  -2.68933756018409     
  -1.72075282461530        2.03317404006954       -1.58826820537509     
  -1.71521522913957        1.06939098653708       -2.34391663283813     
  -1.71825911155321        1.09320031840428       -2.31891645151064     
  -1.74110108144186        1.05782671618203       -2.32019498751144     
  -1.72943599061202        1.05790330119202       -2.32872661936965     
  -1.70593903107363        1.06242153916025       -2.35615157730089     
  0.000000000000000E+000  0.000000000000000E+000  0.000000000000000E+000
  0.000000000000000E+000  0.000000000000000E+000  0.000000000000000E+000
  0.000000000000000E+000  0.000000000000000E+000  0.000000000000000E+000
  0.000000000000000E+000  0.000000000000000E+000  0.000000000000000E+000
  0.000000000000000E+000  0.000000000000000E+000  0.000000000000000E+000
  0.000000000000000E+000  0.000000000000000E+000  0.000000000000000E+000
  0.000000000000000E+000  0.000000000000000E+000  0.000000000000000E+000
  0.000000000000000E+000  0.000000000000000E+000  0.000000000000000E+000
  0.000000000000000E+000  0.000000000000000E+000  0.000000000000000E+000
  0.000000000000000E+000  0.000000000000000E+000  0.000000000000000E+000
  0.000000000000000E+000  0.000000000000000E+000  0.000000000000000E+000
  0.000000000000000E+000  0.000000000000000E+000  0.000000000000000E+000
  0.000000000000000E+000  0.000000000000000E+000  0.000000000000000E+000
  0.000000000000000E+000  0.000000000000000E+000  0.000000000000000E+000
  0.000000000000000E+000  0.000000000000000E+000  0.000000000000000E+000
  0.000000000000000E+000  0.000000000000000E+000  0.000000000000000E+000
       N       E                     dE             d eps       ncg     rms          rms(c)
DIA:   1     0.364880253548E+04    0.36488E+04    0.00000E+00     0   0.000E+00
 current spin(trial):
  0.159486542206533      -6.656180497859926E-003  5.350552885699505E-002
  3.895694705526723E-002 -1.864730144133288E-002  2.879353166787618E-002
  3.739761023461258E-002 -2.403159655313260E-002  4.014580397447860E-002
  3.736503720185151E-002 -2.737432053288913E-002  4.913076808969158E-002
  4.688264699950408E-003 -1.629539000270379E-002  5.304622903061564E-002
  3.432201883877936E-002 -2.168675984670095E-002  5.105111419623374E-002
  4.150969248609662E-002 -2.358264563819519E-002  5.980946569199157E-002
  4.140157611736869E-002 -2.312509769447076E-002  4.764586657271087E-002
 -3.609156180874837E-002  3.320461245399040E-002 -4.959572602587204E-002
 -3.277919310737711E-002 -2.706139377117226E-003 -5.765634338103716E-002
 -1.506940887654309E-002  4.204411613683194E-002 -3.440010549666928E-002
 -3.493221821365447E-002  1.043850190109463E-002 -4.519793230090800E-002
 -3.379210833591770E-002  1.260679615621531E-003 -5.570231077976141E-002
 -2.417323923580397E-002  1.512710043866713E-002 -5.408640782737437E-002
 -2.906896775111240E-002  1.464445645498888E-002 -5.064529869156650E-002
 -3.852160438881196E-002  1.290887410823936E-002 -4.031641293242755E-002
  7.524627827771029E-004 -6.349179331377947E-003 -4.090277456210334E-004
  1.150901173190236E-002  1.656186221991120E-003 -3.190689653360391E-003
  9.538820750889101E-003  3.271745637195967E-003  4.834114596071190E-003
  4.796188902811581E-003 -9.999490620977318E-003 -7.386083504176094E-003
  2.464383926254776E-003  3.496755111882095E-003 -9.769926948275410E-003
  3.009813948028398E-004 -4.678805276732358E-003 -4.444688886536813E-003
 -5.457978276804049E-003  2.334888718251904E-004  4.474545280756794E-003
  3.885755547969314E-003  2.499881371105529E-003 -3.998730711158063E-003
 -4.883837135489103E-004 -1.002612759716605E-003 -7.013104935124598E-003
 -5.019554402550641E-003 -2.291655706017527E-003 -1.800005313107334E-003
 -2.852547677810566E-003  4.828690244346799E-003 -2.511831527412582E-003
  2.974926859842572E-003  2.828651435388879E-003 -4.850780629230091E-003
  3.129326845960994E-003  8.326852143189470E-003 -8.511667687211630E-003
  1.466141794885806E-002 -3.628788228555244E-003 -1.142056975880666E-003
  1.297431658915057E-002  9.202216917096350E-004 -8.073204674045988E-004
  1.984203891241188E-003  1.065364967379032E-003 -7.027259148493142E-003
 cosine between target and trial:  -0.9989284    
 alpha_opt before restrict =   -40.4216019714618     
 boundary before =    92.7045678085038     
 restriction needed: true
 alpha_opt after restrict =   -1.30807800285394     
 boundary after =    3.00000000000000     
 delta delta lambda:
   1.32641350763843      -0.547266746903428        2.63535843967885     
   1.74618514444824       -1.07428875557815        2.44484970179272     
   1.75026917392577       -1.06055518176285        2.41586961155886     
   1.75157430823538       -1.05105093461081        2.39352295722553     
  0.303274685456682      -0.878232956964160        3.03725706209595     
   1.75822160969812       -1.06638453379617        2.38717804372294     
   1.73989066966112       -1.06145927529489        2.36497114546311     
   1.73912468842124       -1.06197094464573        2.39481709714699     
  -1.75352828989010        1.03636922706620       -2.39066144583199     
  -1.51571827208494       4.867627207294848E-002  -2.75819698841630     
  -1.76457899129058        2.08512843174595       -1.62905826360725     
  -1.75775912858695        1.09611186161008       -2.40298810664586     
  -1.76080519879712        1.12027413535772       -2.37644529608053     
  -1.78508590395968        1.08406369927676       -2.37926180349796     
  -1.77270836232808        1.08475457765977       -2.38812631031938     
  -1.74833034439178        1.08933115485514       -2.41562854739089     
  0.000000000000000E+000  0.000000000000000E+000  0.000000000000000E+000
  0.000000000000000E+000  0.000000000000000E+000  0.000000000000000E+000
  0.000000000000000E+000  0.000000000000000E+000  0.000000000000000E+000
  0.000000000000000E+000  0.000000000000000E+000  0.000000000000000E+000
  0.000000000000000E+000  0.000000000000000E+000  0.000000000000000E+000
  0.000000000000000E+000  0.000000000000000E+000  0.000000000000000E+000
  0.000000000000000E+000  0.000000000000000E+000  0.000000000000000E+000
  0.000000000000000E+000  0.000000000000000E+000  0.000000000000000E+000
  0.000000000000000E+000  0.000000000000000E+000  0.000000000000000E+000
  0.000000000000000E+000  0.000000000000000E+000  0.000000000000000E+000
  0.000000000000000E+000  0.000000000000000E+000  0.000000000000000E+000
  0.000000000000000E+000  0.000000000000000E+000  0.000000000000000E+000
  0.000000000000000E+000  0.000000000000000E+000  0.000000000000000E+000
  0.000000000000000E+000  0.000000000000000E+000  0.000000000000000E+000
  0.000000000000000E+000  0.000000000000000E+000  0.000000000000000E+000
  0.000000000000000E+000  0.000000000000000E+000  0.000000000000000E+000
 optimal delta lambda: 
   2.62785625184926       -1.08075280717522        5.20542603842307     
   3.44898198760624       -2.12195906190815        4.82864292756098     
   3.45706126074719       -2.09514824600811        4.77203816851969     
   3.46091396134937       -2.07554701037012        4.72902489043202     
  0.598649705477992       -1.73427131222566        6.00000000000000     
   3.47270445365821       -2.10636587260394        4.71510157621307     
   3.43692263032363       -2.09665538498194        4.67189342767099     
   3.43431478184072       -2.09695378240351        4.72888914724875     
  -3.46334883043484        2.04709276716480       -4.72165056536643     
  -2.99388468965937       9.631874404248839E-002  -5.44753454860039     
  -3.48533181590588        4.11830247181549       -3.21732646898234     
  -3.47297435772652        2.16550284814715       -4.74690473948399     
  -3.47906431035033        2.21347445376199       -4.69536174759117     
  -3.52618698540154        2.14189041545879       -4.69945679100940     
  -3.50214435294010        2.14265787885179       -4.71685292968903     
  -3.45426937546541        2.15175269401539       -4.77178012469179     
  0.000000000000000E+000  0.000000000000000E+000  0.000000000000000E+000
  0.000000000000000E+000  0.000000000000000E+000  0.000000000000000E+000
  0.000000000000000E+000  0.000000000000000E+000  0.000000000000000E+000
  0.000000000000000E+000  0.000000000000000E+000  0.000000000000000E+000
  0.000000000000000E+000  0.000000000000000E+000  0.000000000000000E+000
  0.000000000000000E+000  0.000000000000000E+000  0.000000000000000E+000
  0.000000000000000E+000  0.000000000000000E+000  0.000000000000000E+000
  0.000000000000000E+000  0.000000000000000E+000  0.000000000000000E+000
  0.000000000000000E+000  0.000000000000000E+000  0.000000000000000E+000
  0.000000000000000E+000  0.000000000000000E+000  0.000000000000000E+000
  0.000000000000000E+000  0.000000000000000E+000  0.000000000000000E+000
  0.000000000000000E+000  0.000000000000000E+000  0.000000000000000E+000
  0.000000000000000E+000  0.000000000000000E+000  0.000000000000000E+000
  0.000000000000000E+000  0.000000000000000E+000  0.000000000000000E+000
  0.000000000000000E+000  0.000000000000000E+000  0.000000000000000E+000
  0.000000000000000E+000  0.000000000000000E+000  0.000000000000000E+000
       N       E                     dE             d eps       ncg     rms          rms(c)
DIA:   1     0.364589919712E+04    0.36459E+04    0.00000E+00     0   0.000E+00
 diagonal gradient:
  1.851838000870008E-002  1.241317004916321E-002  1.295742148693969E-002
  1.327442297085719E-002  1.322340117993041E-002  1.308212151744710E-002
  1.295532614152292E-002  1.331359957652519E-002  1.310441649567816E-002
  1.349930548617385E-002  1.246187132210946E-002  1.338464329253683E-002
  1.240056651399520E-002  1.288563854354144E-002  1.336276459650793E-002
  1.306753168310357E-002  1.310294812180471E-002  1.320044258788386E-002
  1.325549186113914E-002  1.307366140945877E-002  1.337055082673987E-002
  1.278967878572241E-002  1.252981899647070E-002  1.257894076979065E-002
  1.302656675238959E-002  1.309400162905094E-002  1.290829468305274E-002
  1.316542830427854E-002  1.391012456803666E-002  1.306332402204777E-002
  1.313086338726047E-002  1.313086083388965E-002  1.299972866441784E-002
  1.375531848218672E-002  1.343035534866168E-002  1.334644572650290E-002
  1.368329513622201E-002  1.369083446291825E-002  1.373585388238237E-002
  1.312981120833399E-002  1.360835203115646E-002  1.299920004798174E-002
  1.339775861948208E-002  1.294612209045130E-002  1.297166412037553E-002
  1.345344059215752E-002  1.314107116920162E-002  1.333449735744713E-002
  0.000000000000000E+000  0.000000000000000E+000  0.000000000000000E+000
  0.000000000000000E+000  0.000000000000000E+000  0.000000000000000E+000
  0.000000000000000E+000  0.000000000000000E+000  0.000000000000000E+000
  0.000000000000000E+000  0.000000000000000E+000  0.000000000000000E+000
  0.000000000000000E+000  0.000000000000000E+000  0.000000000000000E+000
  0.000000000000000E+000  0.000000000000000E+000  0.000000000000000E+000
  0.000000000000000E+000  0.000000000000000E+000  0.000000000000000E+000
  0.000000000000000E+000  0.000000000000000E+000  0.000000000000000E+000
  0.000000000000000E+000  0.000000000000000E+000  0.000000000000000E+000
  0.000000000000000E+000  0.000000000000000E+000  0.000000000000000E+000
  0.000000000000000E+000  0.000000000000000E+000  0.000000000000000E+000
  0.000000000000000E+000  0.000000000000000E+000  0.000000000000000E+000
  0.000000000000000E+000  0.000000000000000E+000  0.000000000000000E+000
  0.000000000000000E+000  0.000000000000000E+000  0.000000000000000E+000
  0.000000000000000E+000  0.000000000000000E+000  0.000000000000000E+000
  0.000000000000000E+000  0.000000000000000E+000  0.000000000000000E+000
 maximum gradient appears at: 
 ( 1 , 1 ) ( 1 , 1 ) 
 maximum gradient: 
 0.18518380E-01 0.00000000E+00 
Reach limitation of current step ( maximum gradient < 1.000E+00 in atom type 1 ), exit.
 Inner optimization for lambda ends.
 ===============================================================================
 final optimal lambda: 
   1.31771343497181      -0.540199206625742        2.60239469882987     
   1.72421673848713       -1.06084826330146        2.41378341602635     
   1.72826207963546       -1.04760255585407        2.38580325771001     
   1.73082565559366       -1.03738898180453        2.36486251468586     
  0.299095193703413      -0.866811358383517        3.00000000000000     
   1.73605038676326       -1.05306233721573        2.35720628294250     
   1.71837464368025       -1.04821669152238        2.33593262773354     
   1.71652338039006       -1.04800969607759        2.36344850638212     
  -1.73133051189315        1.02343635032760       -2.36031459976768     
  -1.49675924940543       4.823956824889460E-002  -2.72317148150499     
  -1.74239835138752        2.05875164442483       -1.60825134267439     
  -1.73677709883469        1.08283664057860       -2.37339332028168     
  -1.73985834641850        1.10694236333896       -2.34806754677638     
  -1.76299815996064        1.07112457926513       -2.34938063197391     
  -1.75118123778175        1.07120963905953       -2.35802100190543     
  -1.72738524088515        1.07578401643818       -2.38578332099294     
  0.000000000000000E+000  0.000000000000000E+000  0.000000000000000E+000
  0.000000000000000E+000  0.000000000000000E+000  0.000000000000000E+000
  0.000000000000000E+000  0.000000000000000E+000  0.000000000000000E+000
  0.000000000000000E+000  0.000000000000000E+000  0.000000000000000E+000
  0.000000000000000E+000  0.000000000000000E+000  0.000000000000000E+000
  0.000000000000000E+000  0.000000000000000E+000  0.000000000000000E+000
  0.000000000000000E+000  0.000000000000000E+000  0.000000000000000E+000
  0.000000000000000E+000  0.000000000000000E+000  0.000000000000000E+000
  0.000000000000000E+000  0.000000000000000E+000  0.000000000000000E+000
  0.000000000000000E+000  0.000000000000000E+000  0.000000000000000E+000
  0.000000000000000E+000  0.000000000000000E+000  0.000000000000000E+000
  0.000000000000000E+000  0.000000000000000E+000  0.000000000000000E+000
  0.000000000000000E+000  0.000000000000000E+000  0.000000000000000E+000
  0.000000000000000E+000  0.000000000000000E+000  0.000000000000000E+000
  0.000000000000000E+000  0.000000000000000E+000  0.000000000000000E+000
  0.000000000000000E+000  0.000000000000000E+000  0.000000000000000E+000
    0.150E+03
DAV:   2     0.888870431510E+03   -0.27608E+04   -0.32771E+04  5056   0.707E+02
 ===============================================================================
 Inner optimization for lambda begins ...
 Covergence criterion this loop:  1.000000000000000E-006
 initial lambda:
   1.31771343497181      -0.540199206625742        2.60239469882987     
   1.72421673848713       -1.06084826330146        2.41378341602635     
   1.72826207963546       -1.04760255585407        2.38580325771001     
   1.73082565559366       -1.03738898180453        2.36486251468586     
  0.299095193703413      -0.866811358383517        3.00000000000000     
   1.73605038676326       -1.05306233721573        2.35720628294250     
   1.71837464368025       -1.04821669152238        2.33593262773354     
   1.71652338039006       -1.04800969607759        2.36344850638212     
  -1.73133051189315        1.02343635032760       -2.36031459976768     
  -1.49675924940543       4.823956824889460E-002  -2.72317148150499     
  -1.74239835138752        2.05875164442483       -1.60825134267439     
  -1.73677709883469        1.08283664057860       -2.37339332028168     
  -1.73985834641850        1.10694236333896       -2.34806754677638     
  -1.76299815996064        1.07112457926513       -2.34938063197391     
  -1.75118123778175        1.07120963905953       -2.35802100190543     
  -1.72738524088515        1.07578401643818       -2.38578332099294     
  0.000000000000000E+000  0.000000000000000E+000  0.000000000000000E+000
  0.000000000000000E+000  0.000000000000000E+000  0.000000000000000E+000
  0.000000000000000E+000  0.000000000000000E+000  0.000000000000000E+000
  0.000000000000000E+000  0.000000000000000E+000  0.000000000000000E+000
  0.000000000000000E+000  0.000000000000000E+000  0.000000000000000E+000
  0.000000000000000E+000  0.000000000000000E+000  0.000000000000000E+000
  0.000000000000000E+000  0.000000000000000E+000  0.000000000000000E+000
  0.000000000000000E+000  0.000000000000000E+000  0.000000000000000E+000
  0.000000000000000E+000  0.000000000000000E+000  0.000000000000000E+000
  0.000000000000000E+000  0.000000000000000E+000  0.000000000000000E+000
  0.000000000000000E+000  0.000000000000000E+000  0.000000000000000E+000
  0.000000000000000E+000  0.000000000000000E+000  0.000000000000000E+000
  0.000000000000000E+000  0.000000000000000E+000  0.000000000000000E+000
  0.000000000000000E+000  0.000000000000000E+000  0.000000000000000E+000
  0.000000000000000E+000  0.000000000000000E+000  0.000000000000000E+000
  0.000000000000000E+000  0.000000000000000E+000  0.000000000000000E+000
 initial spin: 
  0.508152136694233      -0.128657228518284       0.837608290134136     
  0.395431467711387      -0.230425914320993       0.545955785992223     
  0.395426662884687      -0.254968722117892       0.553701774305115     
  0.450735697198869      -0.265765719483123       0.615448191974864     
  7.128710850178963E-002 -0.196902816443481       0.726310096647353     
  0.410917643813790      -0.256763083995465       0.577171405825374     
  0.413605813297366      -0.291868108751393       0.601066861512349     
  0.431913655346375      -0.238795501156309       0.598543603710113     
 -0.430206553544514       0.257926625927755      -0.579242965469174     
 -0.366242778753034      -5.228868795415894E-003 -0.672004032663773     
 -0.393351518177955       0.519784070160891      -0.394209123328340     
 -0.413214372054252       0.241651094217219      -0.542455962421795     
 -0.422738418550584       0.245902512291068      -0.581291521612431     
 -0.419979193967083       0.249046210536325      -0.585162574659678     
 -0.421612109543036       0.286817240897575      -0.598401589823684     
 -0.389607730929671       0.257267799699969      -0.563117729930793     
 -1.720383250775541E-004  6.347261148358639E-004 -6.914086635767621E-003
  9.454262445069425E-003  5.211911160495038E-003 -4.653940735942340E-003
  8.272899432362434E-003  1.781970231405293E-003 -2.114219755817744E-003
 -2.602055931939402E-003 -6.206779488101293E-003 -2.546917574419951E-003
 -6.441287102803155E-003  5.405511512377489E-003 -3.260782790508556E-003
 -2.952168489681529E-003  1.461041538327255E-002  2.190405179700579E-003
 -6.758950835079497E-003 -3.010669575893756E-003 -8.443725848996785E-003
  2.045825992944075E-003  4.807151849532581E-004  5.154675143064872E-003
  3.419870266266389E-003 -8.745587968674601E-003 -1.200402930565836E-003
 -3.001381773117737E-003 -5.282262074336274E-003 -1.012076543275706E-002
 -9.919378929069954E-003 -6.788091724612941E-004 -8.267772127141745E-003
 -1.351540551706886E-002  3.135164073955293E-003  5.216753753836930E-003
  4.685760102729823E-004  6.257195699160183E-004 -4.481289877537445E-003
  1.503468038650516E-003 -5.027721952281606E-003 -8.385316411745549E-003
  4.101412490949528E-003  5.396175409746754E-003 -5.102431678106974E-003
 -5.379567280665846E-003  8.812557855607361E-003  6.133292828760641E-003
 target spin: 
  0.665340000000000      -0.216640000000000        1.06429000000000     
  0.708750000000000      -0.430690000000000       0.966690000000000     
  0.708750000000000      -0.430690000000000       0.966690000000000     
  0.708750000000000      -0.430690000000000       0.966690000000000     
  0.121150000000000      -0.353300000000000        1.21771000000000     
  0.708750000000000      -0.430690000000000       0.966690000000000     
  0.708750000000000      -0.430690000000000       0.966690000000000     
  0.708750000000000      -0.430690000000000       0.966690000000000     
 -0.708750000000000       0.430690000000000      -0.966690000000000     
 -0.614130000000000       1.590000000000000E-002  -1.11575000000000     
 -0.691910000000000       0.841900000000000      -0.659380000000000     
 -0.708750000000000       0.430690000000000      -0.966690000000000     
 -0.708750000000000       0.430690000000000      -0.966690000000000     
 -0.708750000000000       0.430690000000000      -0.966690000000000     
 -0.708750000000000       0.430690000000000      -0.966690000000000     
 -0.708750000000000       0.430690000000000      -0.966690000000000     
  0.000000000000000E+000  0.000000000000000E+000  0.000000000000000E+000
  0.000000000000000E+000  0.000000000000000E+000  0.000000000000000E+000
  0.000000000000000E+000  0.000000000000000E+000  0.000000000000000E+000
  0.000000000000000E+000  0.000000000000000E+000  0.000000000000000E+000
  0.000000000000000E+000  0.000000000000000E+000  0.000000000000000E+000
  0.000000000000000E+000  0.000000000000000E+000  0.000000000000000E+000
  0.000000000000000E+000  0.000000000000000E+000  0.000000000000000E+000
  0.000000000000000E+000  0.000000000000000E+000  0.000000000000000E+000
  0.000000000000000E+000  0.000000000000000E+000  0.000000000000000E+000
  0.000000000000000E+000  0.000000000000000E+000  0.000000000000000E+000
  0.000000000000000E+000  0.000000000000000E+000  0.000000000000000E+000
  0.000000000000000E+000  0.000000000000000E+000  0.000000000000000E+000
  0.000000000000000E+000  0.000000000000000E+000  0.000000000000000E+000
  0.000000000000000E+000  0.000000000000000E+000  0.000000000000000E+000
  0.000000000000000E+000  0.000000000000000E+000  0.000000000000000E+000
  0.000000000000000E+000  0.000000000000000E+000  0.000000000000000E+000
Step (Outer -- Inner) =  2 -- 1       RMS =  2.917853372453E-01
 -------------------------------------------------------------------------------
 restriction of this step =    3.00000000000000     
 alpha_trial before restrict =   1.000000000000000E-002
 boundary before =   4.913999033526474E-003
 trial need restriction: false
 delta delta lambda:
 -1.571878633057667E-003  8.798277148171555E-004 -2.266817098658635E-003
 -3.133185322886133E-003  2.002640856790072E-003 -4.207342140077769E-003
 -3.133233371153133E-003  1.757212778821085E-003 -4.129882256948852E-003
 -2.580143028011312E-003  1.649242805168766E-003 -3.512418080251358E-003
 -4.986289149821037E-004  1.563971835565192E-003 -4.913999033526474E-003
 -2.978323561862100E-003  1.739269160045346E-003 -3.895185941746262E-003
 -2.951441867026335E-003  1.388218912486074E-003 -3.656231384876515E-003
 -2.768363446536254E-003  1.918944988436911E-003 -3.681463962898870E-003
  2.785434464554861E-003 -1.727633740722446E-003  3.874470345308261E-003
  2.478872212469656E-003 -2.112886879541590E-004  4.437459673362266E-003
  2.985584818220453E-003 -3.221159298391089E-003  2.651708766716597E-003
  2.955356279457482E-003 -1.890389057827806E-003  4.242340375782048E-003
  2.860115814494162E-003 -1.847874877089321E-003  3.853984783875693E-003
  2.887708060329174E-003 -1.816437894636752E-003  3.815274253403225E-003
  2.871378904569639E-003 -1.438727591024249E-003  3.682884101763164E-003
  3.191422690703289E-003 -1.734222003000309E-003  4.035722700692075E-003
  0.000000000000000E+000  0.000000000000000E+000  0.000000000000000E+000
  0.000000000000000E+000  0.000000000000000E+000  0.000000000000000E+000
  0.000000000000000E+000  0.000000000000000E+000  0.000000000000000E+000
  0.000000000000000E+000  0.000000000000000E+000  0.000000000000000E+000
  0.000000000000000E+000  0.000000000000000E+000  0.000000000000000E+000
  0.000000000000000E+000  0.000000000000000E+000  0.000000000000000E+000
  0.000000000000000E+000  0.000000000000000E+000  0.000000000000000E+000
  0.000000000000000E+000  0.000000000000000E+000  0.000000000000000E+000
  0.000000000000000E+000  0.000000000000000E+000  0.000000000000000E+000
  0.000000000000000E+000  0.000000000000000E+000  0.000000000000000E+000
  0.000000000000000E+000  0.000000000000000E+000  0.000000000000000E+000
  0.000000000000000E+000  0.000000000000000E+000  0.000000000000000E+000
  0.000000000000000E+000  0.000000000000000E+000  0.000000000000000E+000
  0.000000000000000E+000  0.000000000000000E+000  0.000000000000000E+000
  0.000000000000000E+000  0.000000000000000E+000  0.000000000000000E+000
  0.000000000000000E+000  0.000000000000000E+000  0.000000000000000E+000
 trial delta lambda:
 -1.571878633057667E-003  8.798277148171555E-004 -2.266817098658635E-003
 -3.133185322886133E-003  2.002640856790072E-003 -4.207342140077769E-003
 -3.133233371153133E-003  1.757212778821085E-003 -4.129882256948852E-003
 -2.580143028011312E-003  1.649242805168766E-003 -3.512418080251358E-003
 -4.986289149821037E-004  1.563971835565192E-003 -4.913999033526474E-003
 -2.978323561862100E-003  1.739269160045346E-003 -3.895185941746262E-003
 -2.951441867026335E-003  1.388218912486074E-003 -3.656231384876515E-003
 -2.768363446536254E-003  1.918944988436911E-003 -3.681463962898870E-003
  2.785434464554861E-003 -1.727633740722446E-003  3.874470345308261E-003
  2.478872212469656E-003 -2.112886879541590E-004  4.437459673362266E-003
  2.985584818220453E-003 -3.221159298391089E-003  2.651708766716597E-003
  2.955356279457482E-003 -1.890389057827806E-003  4.242340375782048E-003
  2.860115814494162E-003 -1.847874877089321E-003  3.853984783875693E-003
  2.887708060329174E-003 -1.816437894636752E-003  3.815274253403225E-003
  2.871378904569639E-003 -1.438727591024249E-003  3.682884101763164E-003
  3.191422690703289E-003 -1.734222003000309E-003  4.035722700692075E-003
  0.000000000000000E+000  0.000000000000000E+000  0.000000000000000E+000
  0.000000000000000E+000  0.000000000000000E+000  0.000000000000000E+000
  0.000000000000000E+000  0.000000000000000E+000  0.000000000000000E+000
  0.000000000000000E+000  0.000000000000000E+000  0.000000000000000E+000
  0.000000000000000E+000  0.000000000000000E+000  0.000000000000000E+000
  0.000000000000000E+000  0.000000000000000E+000  0.000000000000000E+000
  0.000000000000000E+000  0.000000000000000E+000  0.000000000000000E+000
  0.000000000000000E+000  0.000000000000000E+000  0.000000000000000E+000
  0.000000000000000E+000  0.000000000000000E+000  0.000000000000000E+000
  0.000000000000000E+000  0.000000000000000E+000  0.000000000000000E+000
  0.000000000000000E+000  0.000000000000000E+000  0.000000000000000E+000
  0.000000000000000E+000  0.000000000000000E+000  0.000000000000000E+000
  0.000000000000000E+000  0.000000000000000E+000  0.000000000000000E+000
  0.000000000000000E+000  0.000000000000000E+000  0.000000000000000E+000
  0.000000000000000E+000  0.000000000000000E+000  0.000000000000000E+000
  0.000000000000000E+000  0.000000000000000E+000  0.000000000000000E+000
       N       E                     dE             d eps       ncg     rms          rms(c)
DIA:   1     0.878605105428E+03    0.87861E+03    0.00000E+00     0   0.000E+00
 current spin(trial):
  0.507829792559865      -0.128417859052824       0.837181109790891     
  0.394703794581424      -0.229948989195629       0.545008679685587     
  0.394701644702460      -0.254674857612280       0.552782800995947     
  0.450227638666488      -0.265413904534457       0.614744877314256     
  7.113641200306443E-002 -0.196566986695225       0.725347532573583     
  0.410247400360074      -0.256424287362483       0.576399205195741     
  0.412973908518662      -0.291548326191766       0.600281920596117     
  0.431278762285657      -0.238332885221051       0.597774752320076     
 -0.429556708531295       0.257572133465530      -0.578434362547035     
 -0.365740976539130      -5.251796500203829E-003 -0.671111419181183     
 -0.392682597564487       0.519083837737317      -0.393608175695253     
 -0.412581973289256       0.241267877639436      -0.541477824503169     
 -0.422159844084305       0.245481116281685      -0.580464666819424     
 -0.419388623900927       0.248675349848589      -0.584443189387148     
 -0.421012112989723       0.286502350819690      -0.597635467940121     
 -0.388847298059089       0.256885763740929      -0.562266768309294     
 -1.727012825731885E-004  6.333832873889472E-004 -6.915112669442022E-003
  9.455199721215500E-003  5.212167932993792E-003 -4.656335421288889E-003
  8.275148537706580E-003  1.781296843836010E-003 -2.113535261974113E-003
 -2.600450542634735E-003 -6.207184887990454E-003 -2.548330593052842E-003
 -6.440016015220710E-003  5.407132684173457E-003 -3.260217871617590E-003
 -2.953209752822481E-003  1.461125854728231E-002  2.190197559369911E-003
 -6.757191293649831E-003 -3.011336577942001E-003 -8.445665929205643E-003
  2.048573157191349E-003  4.825300324593079E-004  5.156626059935823E-003
  3.421287000400227E-003 -8.746549271014700E-003 -1.202652622158863E-003
 -2.999931184843018E-003 -5.281210528608156E-003 -1.012135197904160E-002
 -9.917982182489359E-003 -6.772922010912273E-004 -8.268130814893953E-003
 -1.351453359001867E-002  3.136905952940575E-003  5.216887670076120E-003
  4.682910055251515E-004  6.280560491739205E-004 -4.483129458742069E-003
  1.506215650379308E-003 -5.027808962696762E-003 -8.387250657122817E-003
  4.099195383204465E-003  5.396489055104967E-003 -5.101910591266317E-003
 -5.379456812851419E-003  8.811123814582012E-003  6.134286050398523E-003
 cosine between target and trial:  -0.9977165    
 alpha_opt before restrict =   -4.67330711887237     
 boundary before =    2.29646266655112     
 restriction needed: false
 delta delta lambda:
  0.736159039220234      -0.412050340018439        1.06162006553296     
   1.46736691274190      -0.937898218114961        1.97042753961579     
   1.46738941522099      -0.822956711642628        1.93415069740732     
   1.20836022107943      -0.772391057019592        1.64497325996972     
  0.233523234721129      -0.732456043121835        2.30137666558465     
   1.39484039395741      -0.814553163887554        1.82423520503118     
   1.38225087067824      -0.650145551539929        1.71232544730368     
   1.29650962367893      -0.898700872507104        1.72414263853164     
  -1.30450450570022       0.809103939672953       -1.81453345500421     
  -1.16093198794340       9.895298164329151E-002  -2.07819864779666     
  -1.39824106331691        1.50856782731769       -1.24187665443401     
  -1.38408411023874       0.885327253196340       -1.98681828825797     
  -1.33948007548200       0.865416556665782       -1.80493943743508     
  -1.35240237161647       0.850693652294184       -1.78681010714138     
  -1.34475492647509       0.673800316916196       -1.72480773317693     
  -1.49464126067015       0.812189425235644       -1.89005288539460     
  0.000000000000000E+000  0.000000000000000E+000  0.000000000000000E+000
  0.000000000000000E+000  0.000000000000000E+000  0.000000000000000E+000
  0.000000000000000E+000  0.000000000000000E+000  0.000000000000000E+000
  0.000000000000000E+000  0.000000000000000E+000  0.000000000000000E+000
  0.000000000000000E+000  0.000000000000000E+000  0.000000000000000E+000
  0.000000000000000E+000  0.000000000000000E+000  0.000000000000000E+000
  0.000000000000000E+000  0.000000000000000E+000  0.000000000000000E+000
  0.000000000000000E+000  0.000000000000000E+000  0.000000000000000E+000
  0.000000000000000E+000  0.000000000000000E+000  0.000000000000000E+000
  0.000000000000000E+000  0.000000000000000E+000  0.000000000000000E+000
  0.000000000000000E+000  0.000000000000000E+000  0.000000000000000E+000
  0.000000000000000E+000  0.000000000000000E+000  0.000000000000000E+000
  0.000000000000000E+000  0.000000000000000E+000  0.000000000000000E+000
  0.000000000000000E+000  0.000000000000000E+000  0.000000000000000E+000
  0.000000000000000E+000  0.000000000000000E+000  0.000000000000000E+000
  0.000000000000000E+000  0.000000000000000E+000  0.000000000000000E+000
 optimal delta lambda: 
  0.734587160587177      -0.411170512303622        1.05935324843430     
   1.46423372741902      -0.935895577258171        1.96622019747571     
   1.46425618184984      -0.821199498863807        1.93002081515038     
   1.20578007805142      -0.770741814214423        1.64146084188947     
  0.233024605806147      -0.730892071286270        2.29646266655112     
   1.39186207039555      -0.812813894727508        1.82034001908944     
   1.37929942881121      -0.648757332627443        1.70866921591880     
   1.29374126023239      -0.896781927518667        1.72046117456874     
  -1.30171907123567       0.807376305932231       -1.81065898465890     
  -1.15845311573093       9.874169295533736E-002  -2.07376118812329     
  -1.39525547849869        1.50534666801930       -1.23922494566729     
  -1.38112875395928       0.883436864138512       -1.98257594788219     
  -1.33661995966750       0.863568681788693       -1.80108545265121     
  -1.34951466355614       0.848877214399547       -1.78299483288798     
  -1.34188354757052       0.672361589325172       -1.72112484907517     
  -1.49144983797945       0.810455203232644       -1.88601716269391     
  0.000000000000000E+000  0.000000000000000E+000  0.000000000000000E+000
  0.000000000000000E+000  0.000000000000000E+000  0.000000000000000E+000
  0.000000000000000E+000  0.000000000000000E+000  0.000000000000000E+000
  0.000000000000000E+000  0.000000000000000E+000  0.000000000000000E+000
  0.000000000000000E+000  0.000000000000000E+000  0.000000000000000E+000
  0.000000000000000E+000  0.000000000000000E+000  0.000000000000000E+000
  0.000000000000000E+000  0.000000000000000E+000  0.000000000000000E+000
  0.000000000000000E+000  0.000000000000000E+000  0.000000000000000E+000
  0.000000000000000E+000  0.000000000000000E+000  0.000000000000000E+000
  0.000000000000000E+000  0.000000000000000E+000  0.000000000000000E+000
  0.000000000000000E+000  0.000000000000000E+000  0.000000000000000E+000
  0.000000000000000E+000  0.000000000000000E+000  0.000000000000000E+000
  0.000000000000000E+000  0.000000000000000E+000  0.000000000000000E+000
  0.000000000000000E+000  0.000000000000000E+000  0.000000000000000E+000
  0.000000000000000E+000  0.000000000000000E+000  0.000000000000000E+000
  0.000000000000000E+000  0.000000000000000E+000  0.000000000000000E+000
       N       E                     dE             d eps       ncg     rms          rms(c)
DIA:   1     0.870375384729E+03    0.87038E+03    0.00000E+00     0   0.000E+00
 diagonal gradient:
  0.116247749348043       0.179379592029249       8.818897319623049E-002
  0.192909608347521       0.198176799517276       0.185776231835423     
  0.185197139071321       0.164455588285654       0.183788200354525     
  0.142188563686171       0.156655746945138       0.151797730847449     
  0.180930223273098       0.168608062668435       0.169702483745583     
  0.177656053426866       0.179682197910638       0.174200473311234     
  0.171620722895221       0.142232504726663       0.166857031329627     
  0.171006603193123       0.185343860566493       0.169308768228698     
  0.167438103426629       0.178250269546717       0.166802001806939     
  0.158472115581960       0.123637217025408       0.166188573730715     
  0.176117639001306       0.167204257954145       0.178471568476033     
  0.183678332177392       0.186113002412312       0.187522854218630     
  0.173675381765231       0.179494906859567       0.172843848561348     
  0.169512877853624       0.175809049192465       0.169836630856054     
  0.175180514156834       0.168249114388682       0.165813568430042     
  0.189517988501264       0.182354744872571       0.175669547099505     
  0.000000000000000E+000  0.000000000000000E+000  0.000000000000000E+000
  0.000000000000000E+000  0.000000000000000E+000  0.000000000000000E+000
  0.000000000000000E+000  0.000000000000000E+000  0.000000000000000E+000
  0.000000000000000E+000  0.000000000000000E+000  0.000000000000000E+000
  0.000000000000000E+000  0.000000000000000E+000  0.000000000000000E+000
  0.000000000000000E+000  0.000000000000000E+000  0.000000000000000E+000
  0.000000000000000E+000  0.000000000000000E+000  0.000000000000000E+000
  0.000000000000000E+000  0.000000000000000E+000  0.000000000000000E+000
  0.000000000000000E+000  0.000000000000000E+000  0.000000000000000E+000
  0.000000000000000E+000  0.000000000000000E+000  0.000000000000000E+000
  0.000000000000000E+000  0.000000000000000E+000  0.000000000000000E+000
  0.000000000000000E+000  0.000000000000000E+000  0.000000000000000E+000
  0.000000000000000E+000  0.000000000000000E+000  0.000000000000000E+000
  0.000000000000000E+000  0.000000000000000E+000  0.000000000000000E+000
  0.000000000000000E+000  0.000000000000000E+000  0.000000000000000E+000
  0.000000000000000E+000  0.000000000000000E+000  0.000000000000000E+000
 maximum gradient appears at: 
 ( 2 , 2 ) ( 1 , 1 ) 
 maximum gradient: 
 0.19817680E+00 0.00000000E+00 
 current spin:
  0.593546240812462      -0.202412827269765       0.931031565365649     
  0.677896222597021      -0.415898704504391       0.911232765237962     
  0.666602718630774      -0.390019568803423       0.908416826568375     
  0.622183834618399      -0.386506854090735       0.864618223048630     
  0.113448302458421      -0.320137112602779        1.11602551499008     
  0.658190366154809      -0.402811271092410       0.894275498738134     
  0.650322178358912      -0.384142489130783       0.886170334404881     
  0.653151953669507      -0.405008525688880       0.889832765961644     
 -0.648163926026487       0.401841670085808      -0.881264508699998     
 -0.549825294805428       6.979279325959367E-003  -1.01663944677610     
 -0.639080618854782       0.771484442750803      -0.615375543076208     
 -0.666897798103732       0.406070181443756      -0.914234262873870     
 -0.654876400320864       0.400908692395568      -0.892598062836523     
 -0.648739308292150       0.398286506481058      -0.887980409911124     
 -0.656683959345038       0.399941482850502      -0.883787442762454     
 -0.672264304174072       0.405058151516106      -0.894433510723125     
 -3.253174378605500E-004  6.107704844454669E-004 -7.021570716641562E-003
  9.177924107215770E-003  4.977208885959087E-003 -4.491596616214850E-003
  7.743353366239747E-003  2.131062040306191E-003 -2.480743122743290E-003
 -3.172045077238093E-003 -6.051146405396611E-003 -2.491266642463244E-003
 -6.847631862431974E-003  5.472918312022139E-003 -3.507137379837785E-003
 -3.075835483404169E-003  1.397223462093062E-002  2.053617170159689E-003
 -6.387592468709951E-003 -2.600691632562068E-003 -7.889864542707648E-003
  1.608022814812924E-003  3.697956149467494E-004  4.888434439546127E-003
  3.385981782391673E-003 -8.176732460725969E-003 -8.050373057174138E-004
 -2.993625591266304E-003 -5.365345976024490E-003 -1.042899298419955E-002
 -1.027502050464273E-002 -1.128237916862801E-003 -7.924225877707589E-003
 -1.326773679599328E-002  2.792596204070885E-003  4.954431040403426E-003
  1.790660124028130E-004  1.061565667906451E-004 -4.366049476923903E-003
  6.126264549199322E-004 -5.128136742402485E-003 -8.287598300068443E-003
  4.086754025236901E-003  5.215653365322983E-003 -5.433508441175643E-003
 -4.817772742834922E-003  9.967782688237083E-003  6.476691031009143E-003
 target spin: 
  0.665340000000000      -0.216640000000000        1.06429000000000     
  0.708750000000000      -0.430690000000000       0.966690000000000     
  0.708750000000000      -0.430690000000000       0.966690000000000     
  0.708750000000000      -0.430690000000000       0.966690000000000     
  0.121150000000000      -0.353300000000000        1.21771000000000     
  0.708750000000000      -0.430690000000000       0.966690000000000     
  0.708750000000000      -0.430690000000000       0.966690000000000     
  0.708750000000000      -0.430690000000000       0.966690000000000     
 -0.708750000000000       0.430690000000000      -0.966690000000000     
 -0.614130000000000       1.590000000000000E-002  -1.11575000000000     
 -0.691910000000000       0.841900000000000      -0.659380000000000     
 -0.708750000000000       0.430690000000000      -0.966690000000000     
 -0.708750000000000       0.430690000000000      -0.966690000000000     
 -0.708750000000000       0.430690000000000      -0.966690000000000     
 -0.708750000000000       0.430690000000000      -0.966690000000000     
 -0.708750000000000       0.430690000000000      -0.966690000000000     
  0.000000000000000E+000  0.000000000000000E+000  0.000000000000000E+000
  0.000000000000000E+000  0.000000000000000E+000  0.000000000000000E+000
  0.000000000000000E+000  0.000000000000000E+000  0.000000000000000E+000
  0.000000000000000E+000  0.000000000000000E+000  0.000000000000000E+000
  0.000000000000000E+000  0.000000000000000E+000  0.000000000000000E+000
  0.000000000000000E+000  0.000000000000000E+000  0.000000000000000E+000
  0.000000000000000E+000  0.000000000000000E+000  0.000000000000000E+000
  0.000000000000000E+000  0.000000000000000E+000  0.000000000000000E+000
  0.000000000000000E+000  0.000000000000000E+000  0.000000000000000E+000
  0.000000000000000E+000  0.000000000000000E+000  0.000000000000000E+000
  0.000000000000000E+000  0.000000000000000E+000  0.000000000000000E+000
  0.000000000000000E+000  0.000000000000000E+000  0.000000000000000E+000
  0.000000000000000E+000  0.000000000000000E+000  0.000000000000000E+000
  0.000000000000000E+000  0.000000000000000E+000  0.000000000000000E+000
  0.000000000000000E+000  0.000000000000000E+000  0.000000000000000E+000
  0.000000000000000E+000  0.000000000000000E+000  0.000000000000000E+000
Step (Outer -- Inner) =  2 -- 2       RMS =  6.026782633264E-02
 -------------------------------------------------------------------------------
 restriction of this step =    3.00000000000000     
 alpha_trial before restrict =   1.624504779289256E-002
 boundary before =   2.321891598792874E-003
 trial need restriction: false
 delta delta lambda:
 -1.275232236811315E-003  2.920976384903002E-004 -2.321891598792874E-003
 -7.183667741995559E-004  3.790785038075643E-004 -1.192495648011602E-003
 -9.018336158698573E-004  7.824768854752605E-004 -1.232872342235159E-003
 -1.585088534447206E-003  8.320582352998953E-004 -1.901589340341149E-003
 -1.596719656683559E-004  6.471238969975429E-004 -1.992434456073436E-003
 -1.027756645869541E-003  5.734314863532036E-004 -1.446333239826058E-003
 -1.153712694421085E-003  8.523771731238777E-004 -1.561441255107599E-003
 -1.095054593145769E-003  5.501894295858696E-004 -1.503693625479549E-003
  1.177268449011318E-003 -5.883763072810412E-004  1.656261698586556E-003
  1.216431466948452E-003 -1.595609148880694E-004  1.917594208723799E-003
  1.065132041249904E-003 -1.367146822720313E-003  8.986314162485007E-004
  8.847122481691566E-004 -5.309637098138305E-004  1.146161731284468E-003
  1.073399780848080E-003 -6.118658970308639E-004  1.470727816329884E-003
  1.175009417199966E-003 -6.522846896868310E-004  1.543058972058553E-003
  1.044816487564962E-003 -5.992222734972075E-004  1.601998612623375E-003
  8.138937040693147E-004 -5.365810128203031E-004  1.453506240076650E-003
  0.000000000000000E+000  0.000000000000000E+000  0.000000000000000E+000
  0.000000000000000E+000  0.000000000000000E+000  0.000000000000000E+000
  0.000000000000000E+000  0.000000000000000E+000  0.000000000000000E+000
  0.000000000000000E+000  0.000000000000000E+000  0.000000000000000E+000
  0.000000000000000E+000  0.000000000000000E+000  0.000000000000000E+000
  0.000000000000000E+000  0.000000000000000E+000  0.000000000000000E+000
  0.000000000000000E+000  0.000000000000000E+000  0.000000000000000E+000
  0.000000000000000E+000  0.000000000000000E+000  0.000000000000000E+000
  0.000000000000000E+000  0.000000000000000E+000  0.000000000000000E+000
  0.000000000000000E+000  0.000000000000000E+000  0.000000000000000E+000
  0.000000000000000E+000  0.000000000000000E+000  0.000000000000000E+000
  0.000000000000000E+000  0.000000000000000E+000  0.000000000000000E+000
  0.000000000000000E+000  0.000000000000000E+000  0.000000000000000E+000
  0.000000000000000E+000  0.000000000000000E+000  0.000000000000000E+000
  0.000000000000000E+000  0.000000000000000E+000  0.000000000000000E+000
  0.000000000000000E+000  0.000000000000000E+000  0.000000000000000E+000
 trial delta lambda:
  0.733311928350365      -0.410878414665132        1.05703135683551     
   1.46351536064482      -0.935516498754363        1.96502770182770     
   1.46335434823397      -0.820417021978332        1.92878794280814     
   1.20419498951697      -0.769909755979123        1.63955925254913     
  0.232864933840479      -0.730244947389272        2.29447023209505     
   1.39083431374968      -0.812240463241155        1.81889368584961     
   1.37814571611679      -0.647904955454319        1.70710777466369     
   1.29264620563925      -0.896231738089082        1.71895748094326     
  -1.30054180278666       0.806787929624949       -1.80900272296031     
  -1.15723668426399       9.858213204044929E-002  -2.07184359391457     
  -1.39419034645744        1.50397952119658       -1.23832631425105     
[...]
  0.000000000000000E+000  0.000000000000000E+000  0.000000000000000E+000
  0.000000000000000E+000  0.000000000000000E+000  0.000000000000000E+000
  0.000000000000000E+000  0.000000000000000E+000  0.000000000000000E+000
  0.000000000000000E+000  0.000000000000000E+000  0.000000000000000E+000
  0.000000000000000E+000  0.000000000000000E+000  0.000000000000000E+000
  0.000000000000000E+000  0.000000000000000E+000  0.000000000000000E+000
  0.000000000000000E+000  0.000000000000000E+000  0.000000000000000E+000
  0.000000000000000E+000  0.000000000000000E+000  0.000000000000000E+000
  0.000000000000000E+000  0.000000000000000E+000  0.000000000000000E+000
  0.000000000000000E+000  0.000000000000000E+000  0.000000000000000E+000
       N       E                     dE             d eps       ncg     rms          rms(c)
DIA:   1    -0.165901548978E+03   -0.16590E+03    0.00000E+00     0   0.000E+00
 current spin(trial):
  0.665336157379288      -0.216640966692373        1.06429343345088     
  0.708751670046634      -0.430689282857591       0.966690378061620     
  0.708749035646983      -0.430690035935290       0.966689676991167     
  0.708750175632718      -0.430690569860265       0.966689075239039     
  0.121149445484373      -0.353300065116887        1.21771112341289     
  0.708750843231489      -0.430688806516700       0.966690320693054     
  0.708750521739792      -0.430691188463195       0.966689555204981     
  0.708749888952679      -0.430692857479121       0.966689024678937     
 -0.708747922000329       0.430690698204079      -0.966688624825473     
 -0.614129170302008       1.589977341478645E-002  -1.11574853606074     
 -0.691909678157711       0.841899803850582      -0.659379737052895     
 -0.708748170506773       0.430689276656990      -0.966689349946671     
 -0.708750102239909       0.430689284419586      -0.966688907559310     
 -0.708749966805733       0.430686550745109      -0.966689955811856     
 -0.708750573687811       0.430688945854546      -0.966688104104269     
 -0.708748150934559       0.430689287437002      -0.966688703548378     
 -6.232470049939367E-003  1.018909148887607E-003  5.409382804932245E-003
 -7.058450036696374E-004  2.544124598426835E-003  1.163583831393956E-003
 -6.758650966270752E-004  2.372111023544374E-003  9.936433744796597E-004
  1.505987704271309E-003 -6.958201234023289E-005  2.086114703193130E-003
 -3.532000063354080E-004  2.307999495716587E-003  1.242184273938874E-003
 -6.391619746104985E-003 -4.232923626081861E-003  1.298224869834502E-003
 -7.636015645928498E-003  6.648699355735196E-003  7.452176215913707E-003
 -8.893192692901184E-005  1.417796089525224E-005  1.032646859278528E-004
  1.198828137232675E-003 -4.280277384293048E-005  2.037021327215779E-003
 -7.469717823504345E-003  1.193848462055132E-003  3.351002613851438E-003
 -7.486154648061431E-003  9.393540154218660E-004  3.193590491735209E-003
  9.426091609271562E-004  2.756107180068317E-003  3.365005768775432E-003
  1.612261946507616E-004 -3.109422043820172E-005  2.385972572834134E-004
  3.723208073974429E-004 -2.324269247358421E-003 -6.488093947160261E-004
 -6.372282520552886E-004  8.312360843291743E-003  5.249002098646211E-003
 -7.381812145525512E-003  9.024631143877914E-004  3.334947046920566E-003
 cosine between target and trial:  -0.9658597    
 alpha_opt before restrict =   -5.27191339454674     
 boundary before =   2.489027044395793E-005
 restriction needed: false
 delta delta lambda:
  1.566223090776080E-005  5.154498690721067E-006 -1.937793419723336E-005
 -1.094615430623812E-005 -1.364115858066685E-006 -6.068097707070991E-006
  1.142227620641002E-005 -4.179529271263365E-006  1.094058547534508E-005
  4.818978145800784E-006 -7.886472438558113E-007  1.193848778528976E-005
  1.958197337537195E-006  2.256624712296656E-006 -1.201515861272857E-005
 -3.908570964981196E-006 -5.586894794444019E-006 -1.512478890220706E-006
 -1.556969448914581E-006  5.011492904146147E-006  3.304170553762714E-006
  3.837908427866127E-006  1.124184435185693E-005  8.999701001015034E-006
 -2.171007251346320E-005  3.990393654447992E-006 -2.275944683875040E-005
 -1.242196138275840E-005  1.404981319944929E-006 -2.234304828110163E-005
 -4.794507397195877E-006  4.869012745626241E-006 -4.421537719565103E-006
 -1.934385255217304E-005  9.987517761433336E-006 -1.796855480247006E-005
 -5.739492934774393E-006  7.099446244511162E-006 -1.358849452380619E-005
 -8.508417240566632E-006  2.103908125165768E-005 -1.160228512225413E-005
 -5.766463166361433E-006  1.001256649905700E-005 -2.029596112589461E-005
 -2.256966443582088E-005  1.166801789038845E-005 -2.501486622447015E-005
  0.000000000000000E+000  0.000000000000000E+000  0.000000000000000E+000
  0.000000000000000E+000  0.000000000000000E+000  0.000000000000000E+000
  0.000000000000000E+000  0.000000000000000E+000  0.000000000000000E+000
  0.000000000000000E+000  0.000000000000000E+000  0.000000000000000E+000
  0.000000000000000E+000  0.000000000000000E+000  0.000000000000000E+000
  0.000000000000000E+000  0.000000000000000E+000  0.000000000000000E+000
  0.000000000000000E+000  0.000000000000000E+000  0.000000000000000E+000
  0.000000000000000E+000  0.000000000000000E+000  0.000000000000000E+000
  0.000000000000000E+000  0.000000000000000E+000  0.000000000000000E+000
  0.000000000000000E+000  0.000000000000000E+000  0.000000000000000E+000
  0.000000000000000E+000  0.000000000000000E+000  0.000000000000000E+000
  0.000000000000000E+000  0.000000000000000E+000  0.000000000000000E+000
  0.000000000000000E+000  0.000000000000000E+000  0.000000000000000E+000
  0.000000000000000E+000  0.000000000000000E+000  0.000000000000000E+000
  0.000000000000000E+000  0.000000000000000E+000  0.000000000000000E+000
  0.000000000000000E+000  0.000000000000000E+000  0.000000000000000E+000
 optimal delta lambda: 
 -4.350307441144292E-005 -8.701686728305442E-007 -6.507177627488334E-006
 -1.448621985965455E-005  2.043797169585005E-005 -3.220214408210400E-005
  4.532717697408707E-005 -3.215923504372764E-005  6.805799769825821E-005
  4.222312749340007E-005 -2.873761975836227E-005  4.996191381389959E-005
 -8.647656270461969E-006  1.502870015205439E-005 -4.615620395703457E-005
  4.671729104671434E-006  8.339661977198463E-006  8.223670650786335E-007
  8.625878746183659E-006 -1.062514085264080E-005  4.404007775792922E-006
  2.213990646540941E-005 -3.278061594595813E-005  2.478605010780397E-005
 -7.738164712860854E-005  5.974252515218461E-005 -1.154039621469097E-004
 -5.997458807546135E-005  1.153774400690642E-006 -1.085196517575422E-004
 -2.268034012738808E-005  2.824103989294720E-005 -2.232848695209910E-005
 -7.020396450284279E-005  4.548889788916270E-005 -1.089567274577854E-004
 -4.782767174789027E-005  2.401008720339756E-005 -5.740811855723435E-005
 -6.265822859408640E-005  1.539562492356863E-005 -8.548924815252630E-005
 -6.804727986671026E-005  3.208954073109399E-005 -7.509118262118860E-005
 -9.333908445193506E-005  5.914986367476087E-005 -1.356491201607160E-004
  0.000000000000000E+000  0.000000000000000E+000  0.000000000000000E+000
  0.000000000000000E+000  0.000000000000000E+000  0.000000000000000E+000
  0.000000000000000E+000  0.000000000000000E+000  0.000000000000000E+000
  0.000000000000000E+000  0.000000000000000E+000  0.000000000000000E+000
  0.000000000000000E+000  0.000000000000000E+000  0.000000000000000E+000
  0.000000000000000E+000  0.000000000000000E+000  0.000000000000000E+000
  0.000000000000000E+000  0.000000000000000E+000  0.000000000000000E+000
  0.000000000000000E+000  0.000000000000000E+000  0.000000000000000E+000
  0.000000000000000E+000  0.000000000000000E+000  0.000000000000000E+000
  0.000000000000000E+000  0.000000000000000E+000  0.000000000000000E+000
  0.000000000000000E+000  0.000000000000000E+000  0.000000000000000E+000
  0.000000000000000E+000  0.000000000000000E+000  0.000000000000000E+000
  0.000000000000000E+000  0.000000000000000E+000  0.000000000000000E+000
  0.000000000000000E+000  0.000000000000000E+000  0.000000000000000E+000
  0.000000000000000E+000  0.000000000000000E+000  0.000000000000000E+000
  0.000000000000000E+000  0.000000000000000E+000  0.000000000000000E+000
       N       E                     dE             d eps       ncg     rms          rms(c)
DIA:   1    -0.165901548979E+03   -0.16590E+03    0.00000E+00     0   0.000E+00
 diagonal gradient:
  0.293605597829719       0.171273794350564       0.148100352710587     
  0.123849871460426       0.756573289813938      -3.319490240221264E-002
  8.725059898973800E-002 -7.296242540929263E-003  2.764536702178811E-002
 -1.141980748670584E-002 -0.666703600159514       9.598511739227381E-002
  0.344940991557682      -6.379640670547682E-002  4.006390442323474E-002
  0.178197178330387       0.254433994211591       4.886987886755582E-002
  0.169042732558888       0.214996796557082       0.269639715173006     
  0.125245780604327       0.252484612274603       0.167293614422266     
  8.111259761215985E-002 -0.267252664422787       3.429427452354858E-002
  3.848987560762647E-002  0.164831682993001       3.861251359009095E-002
  5.665655732805028E-002  2.801945280868558E-002  4.775323765180030E-002
  7.932442872775447E-002  5.170286979166248E-002  6.839338386839832E-003
 -6.440783622947831E-002  8.501757841800379E-002  6.009868764865821E-002
 -2.354092273867103E-002  0.167631043012266      -2.365943170518736E-002
 -0.178172875695315       8.748427662578775E-002  7.235142893711401E-002
  6.474923619150606E-002  3.380575023793563E-002  2.477646321650011E-002
  0.000000000000000E+000  0.000000000000000E+000  0.000000000000000E+000
  0.000000000000000E+000  0.000000000000000E+000  0.000000000000000E+000
  0.000000000000000E+000  0.000000000000000E+000  0.000000000000000E+000
  0.000000000000000E+000  0.000000000000000E+000  0.000000000000000E+000
  0.000000000000000E+000  0.000000000000000E+000  0.000000000000000E+000
  0.000000000000000E+000  0.000000000000000E+000  0.000000000000000E+000
  0.000000000000000E+000  0.000000000000000E+000  0.000000000000000E+000
  0.000000000000000E+000  0.000000000000000E+000  0.000000000000000E+000
  0.000000000000000E+000  0.000000000000000E+000  0.000000000000000E+000
  0.000000000000000E+000  0.000000000000000E+000  0.000000000000000E+000
  0.000000000000000E+000  0.000000000000000E+000  0.000000000000000E+000
  0.000000000000000E+000  0.000000000000000E+000  0.000000000000000E+000
  0.000000000000000E+000  0.000000000000000E+000  0.000000000000000E+000
  0.000000000000000E+000  0.000000000000000E+000  0.000000000000000E+000
  0.000000000000000E+000  0.000000000000000E+000  0.000000000000000E+000
  0.000000000000000E+000  0.000000000000000E+000  0.000000000000000E+000
 maximum gradient appears at: 
 ( 2 , 2 ) ( 1 , 1 ) 
 maximum gradient: 
 0.75657329E+00 0.00000000E+00 
Reach limitation of current step ( maximum gradient < 1.000E+00 in atom type 1 ), exit.
 Inner optimization for lambda ends.
 ===============================================================================
 final optimal lambda: 
 -1.056819369793586E-002  1.543935703894166E-002 -6.858520358282668E-003
 -8.103400387302005E-003 -4.760466039808824E-003 -1.983309904853950E-002
 -1.188012632326669E-002  1.911668453333143E-002 -9.435440896246833E-003
 -3.126662956801717E-003  1.676355800640774E-003 -3.842850253775582E-003
 -3.706614735809556E-002  1.865797761913145E-002 -3.634292394160708E-002
 -1.176620244288367E-002  1.867371034093713E-002 -8.210245803233224E-003
 -7.984340153553952E-003 -5.236816988130087E-003 -1.861865106804685E-002
 -4.854731148632409E-003  3.239179692562789E-003 -7.581318579162282E-003
  5.303718540367357E-003  2.385736244912704E-003  1.180888252193509E-002
  2.150275126559313E-002 -2.461234542878855E-002  2.011197353614718E-002
  2.190116812304581E-002 -2.000164529157781E-003  3.699535360648406E-002
  4.822199253406287E-004 -7.678947785503758E-003  2.906934215671411E-002
  1.396398833166223E-003 -8.471406960602671E-003  3.013372554828771E-002
  3.678341044738319E-003 -1.945039138712143E-003  5.147032516584399E-003
  3.945386272302019E-003 -2.397616065054295E-003  5.398843181336985E-003
  6.171099465691808E-003  1.573474134935905E-003  1.275177040119210E-002
  0.000000000000000E+000  0.000000000000000E+000  0.000000000000000E+000
  0.000000000000000E+000  0.000000000000000E+000  0.000000000000000E+000
  0.000000000000000E+000  0.000000000000000E+000  0.000000000000000E+000
  0.000000000000000E+000  0.000000000000000E+000  0.000000000000000E+000
  0.000000000000000E+000  0.000000000000000E+000  0.000000000000000E+000
  0.000000000000000E+000  0.000000000000000E+000  0.000000000000000E+000
  0.000000000000000E+000  0.000000000000000E+000  0.000000000000000E+000
  0.000000000000000E+000  0.000000000000000E+000  0.000000000000000E+000
  0.000000000000000E+000  0.000000000000000E+000  0.000000000000000E+000
  0.000000000000000E+000  0.000000000000000E+000  0.000000000000000E+000
  0.000000000000000E+000  0.000000000000000E+000  0.000000000000000E+000
  0.000000000000000E+000  0.000000000000000E+000  0.000000000000000E+000
  0.000000000000000E+000  0.000000000000000E+000  0.000000000000000E+000
  0.000000000000000E+000  0.000000000000000E+000  0.000000000000000E+000
  0.000000000000000E+000  0.000000000000000E+000  0.000000000000000E+000
  0.000000000000000E+000  0.000000000000000E+000  0.000000000000000E+000
    0.182E-03
DAV:  56    -0.166279220341E+03   -0.22438E-07   -0.78359E-07  5048   0.344E-03
   1 F= -.16627922E+03 E0= -.16627922E+03  d E =0.000000E+00  mag=    -0.7788     0.4298     0.7583
RMS:
3.339312025339E-06
Energy:
-166.27922034
Cartesian Coordinates:
0.00000000 0.00000000 0.00000000 12.80302288 6.95511396 2.52553969 23.04910960 5.40712734 5.05018527 18.78147146 4.12009386 2.52506263 13.65834674 2.57357702 5.05011102 17.92609336 6.95462403 2.52540542 17.92603912 5.40761726 5.05031954 13.65840098 4.12058379 2.52519690 6.82920049 2.06029189 1.26259845 11.09683862 3.34732537 3.78772110 11.09689287 4.89433214 1.26280697 15.36453100 6.18136562 3.78792962 11.95227097 2.05980196 1.26246418 16.21990910 3.34683544 3.78758683 16.21996335 4.89384221 1.26267270 20.48760148 6.18087568 3.78779535 3.41460025 1.03014595 0.63129922 7.68223837 2.31717942 3.15642187 7.68229262 3.86418619 0.63150775 11.94993075 5.15121967 3.15663039 8.53767073 1.02965602 0.63116495 12.80530885 2.31668949 3.15628760 12.80536310 3.86369626 0.63137348 17.07300123 5.15072974 3.15649612 10.24380074 3.09043784 1.89389767 14.51143887 4.37747132 4.41902032 14.51149312 5.92447809 1.89410619 18.77913124 7.21151156 4.41922884 15.36687122 3.08994791 1.89376340 19.63450935 4.37698139 4.41888605 19.63456360 5.92398816 1.89397192 23.90220172 7.21102163 4.41909457
Magnetization:
0.665332496 -0.216641611 1.064290821 0.708749149 -0.430686997 0.966685833 0.708746409 -0.430690084 0.966688034 0.708752729 -0.430689291 0.966685120 0.121142828 -0.353295748 1.217706129 0.708747753 -0.430684870 0.966688482 0.708749032 -0.430692831 0.966685649 0.708746305 -0.430694439 0.966685617 -0.708746527 0.430693325 -0.966688729 -0.614127606 0.015897115 -1.115746870 -0.691906898 0.841899233 -0.659376099 -0.708749006 0.430687646 -0.966687636 -0.708748704 0.430687195 -0.966686423 -0.708748187 0.430682240 -0.966691329 -0.708748931 0.430688043 -0.966686505 -0.708746870 0.430689523 -0.966689336 -0.006232503 0.001018953 0.005409651 -0.000705405 0.002543738 0.001163205 -0.000675640 0.002372785 0.000993746 0.001506185 -0.000069574 0.002086061 -0.000353823 0.002308647 0.001242933 -0.006391022 -0.004233072 0.001298377 -0.007636001 0.006648743 0.007452129 -0.000089311 0.000014659 0.000103883 0.001199130 -0.000042449 0.002037122 -0.007470320 0.001193120 0.003351047 -0.007486079 0.000938130 0.003193281 0.000942891 0.002756062 0.003365209 0.000161554 -0.000033995 0.000236890 0.000372511 -0.002324199 -0.000648509 -0.000637352 0.008312364 0.005249240 -0.007381017 0.000902291 0.003334362
Magnetization Difference from Target:
-0.000007504 -0.000001611 0.000000821 -0.000000851 0.000003003 -0.000004167 -0.000003591 -0.000000084 -0.000001966 0.000002729 0.000000709 -0.000004880 -0.000007172 0.000004252 -0.000003871 -0.000002247 0.000005130 -0.000001518 -0.000000968 -0.000002831 -0.000004351 -0.000003695 -0.000004439 -0.000004383 0.000003473 0.000003325 0.000001271 0.000002394 -0.000002885 0.000003130 0.000003102 -0.000000767 0.000003901 0.000000994 -0.000002354 0.000002364 0.000001296 -0.000002805 0.000003577 0.000001813 -0.000007760 -0.000001329 0.000001069 -0.000001957 0.000003495 0.000003130 -0.000000477 0.000000664 -0.006232503 0.001018953 0.005409651 -0.000705405 0.002543738 0.001163205 -0.000675640 0.002372785 0.000993746 0.001506185 -0.000069574 0.002086061 -0.000353823 0.002308647 0.001242933 -0.006391022 -0.004233072 0.001298377 -0.007636001 0.006648743 0.007452129 -0.000089311 0.000014659 0.000103883 0.001199130 -0.000042449 0.002037122 -0.007470320 0.001193120 0.003351047 -0.007486079 0.000938130 0.003193281 0.000942891 0.002756062 0.003365209 0.000161554 -0.000033995 0.000236890 0.000372511 -0.002324199 -0.000648509 -0.000637352 0.008312364 0.005249240 -0.007381017 0.000902291 0.003334362
Atomic Force:
0.0008907430 0.0001429756 -0.0002625261 0.0020437917 -0.0000715871 0.0000768154 0.0023235032 0.0013298266 0.0005347067 0.0006655971 0.0001764052 0.0001550091 -0.0007970650 -0.0001291661 -0.0002857108 -0.0022577465 -0.0012973022 -0.0006295422 -0.0020454392 0.0000916046 -0.0000626715 -0.0008028217 0.0000014513 0.0000965468 -0.0012979327 -0.0001735000 -0.0003535158 0.0005468553 -0.0000227300 0.0006764085 0.0007700883 -0.0001184078 -0.0000787303 0.0043802183 0.0016092503 -0.0004689564 -0.0044315272 -0.0016481579 0.0005379512 -0.0006561086 -0.0000318940 0.0002350135 -0.0005279205 -0.0001262400 -0.0004308373 0.0013678659 0.0001472682 0.0003605217 0.0004781977 -0.0006758733 -0.0008598088 0.0001774418 -0.0007293005 0.0004262770 -0.0003108223 -0.0000127148 -0.0001845052 0.0007835962 -0.0007874976 -0.0005133776 0.0000050434 0.0001558352 -0.0001024555 0.0004143841 0.0002008815 0.0009998456 -0.0010820507 0.0021190969 -0.0010220998 -0.0002215307 0.0001395125 0.0002615830 -0.0009765559 -0.0004559492 -0.0008842694 0.0014069797 -0.0010083145 0.0008997321 0.0005696780 0.0006156769 -0.0000699759 -0.0015214637 0.0007406872 0.0010134794 0.0007518604 -0.0001334565 -0.0001956006 -0.0007220991 -0.0007832179 -0.0009486489 -0.0005753614 -0.0001138301 -0.0005315164 0.0006506010 0.0008486673 0.0016108586
Magnetic Force:
0.10568194E-01 -0.15439357E-01 0.68585204E-02 0.81034004E-02 0.47604660E-02 0.19833099E-01 0.11880126E-01 -0.19116685E-01 0.94354409E-02 0.31266630E-02 -0.16763558E-02 0.38428503E-02 0.37066147E-01 -0.18657978E-01 0.36342924E-01 0.11766202E-01 -0.18673710E-01 0.82102458E-02 0.79843402E-02 0.52368170E-02 0.18618651E-01 0.48547311E-02 -0.32391797E-02 0.75813186E-02 -0.53037185E-02 -0.23857362E-02 -0.11808883E-01 -0.21502751E-01 0.24612345E-01 -0.20111974E-01 -0.21901168E-01 0.20001645E-02 -0.36995354E-01 -0.48221993E-03 0.76789478E-02 -0.29069342E-01 -0.13963988E-02 0.84714070E-02 -0.30133726E-01 -0.36783410E-02 0.19450391E-02 -0.51470325E-02 -0.39453863E-02 0.23976161E-02 -0.53988432E-02 -0.61710995E-02 -0.15734741E-02 -0.12751770E-01 0.00000000E+00 0.00000000E+00 0.00000000E+00 0.00000000E+00 0.00000000E+00 0.00000000E+00 0.00000000E+00 0.00000000E+00 0.00000000E+00 0.00000000E+00 0.00000000E+00 0.00000000E+00 0.00000000E+00 0.00000000E+00 0.00000000E+00 0.00000000E+00 0.00000000E+00 0.00000000E+00 0.00000000E+00 0.00000000E+00 0.00000000E+00 0.00000000E+00 0.00000000E+00 0.00000000E+00 0.00000000E+00 0.00000000E+00 0.00000000E+00 0.00000000E+00 0.00000000E+00 0.00000000E+00 0.00000000E+00 0.00000000E+00 0.00000000E+00 0.00000000E+00 0.00000000E+00 0.00000000E+00 0.00000000E+00 0.00000000E+00 0.00000000E+00 0.00000000E+00 0.00000000E+00 0.00000000E+00 0.00000000E+00 0.00000000E+00 0.00000000E+00 0.00000000E+00 0.00000000E+00 0.00000000E+00
Time Cost:
0 DAYS 01:16:16

